# vtk DataFile Version 3.0
# # vtk output
ASCII
DATASET POLYDATA

FIELD FieldData 7
STEP 1 1 int
0
TIME 1 1 float
0
VALUE0 1 1 float
0
VALUE1 1 1 float
0.0
SIGMAapp 6 1 float
0.000000e+00 0.000000e+00 0.000000e+00 0.000000e+00 0.000000e+00 0.000000e+00
EPSplas 6 1 float
0.000000e+00 0.000000e+00 0.000000e+00 0.000000e+00 0.000000e+00 0.000000e+00
EPS 6 1 float
0.000000e+00 0.000000e+00 0.000000e+00 0.000000e+00 0.000000e+00 0.000000e+00

POINTS 5 float
-1.265679000000e+01 -0.000000000000e+00 0.000000000000e+00
-2.625679000000e+01 0.000000000000e+00 0.000000000000e+00
1.374321000000e+01 0.000000000000e+00 0.000000000000e+00
5.432100000000e-01 -0.000000000000e+00 0.000000000000e+00
-1.265679000000e+01 -0.000000000000e+00 0.000000000000e+00

LINES 2 7
2 0 1 
3 2 3 4 

VERTICES 2 4
1 0
1 2


POINT_DATA 5

SCALARS tags int
LOOKUP_TABLE default
2 1 1 0 2 

SCALARS dof int
LOOKUP_TABLE default
2 2 2 2 2 

SCALARS consistency int
LOOKUP_TABLE default
1 1 1 1 1 

SCALARS rss float
LOOKUP_TABLE default
0.0000000e+00 0.0000000e+00 0.0000000e+00 0.0000000e+00 0.0000000e+00 

VECTORS NodalForces float
0.0000000e+00 0.0000000e+00 0.0000000e+00
0.0000000e+00 0.0000000e+00 0.0000000e+00
0.0000000e+00 0.0000000e+00 0.0000000e+00
0.0000000e+00 0.0000000e+00 0.0000000e+00
0.0000000e+00 0.0000000e+00 0.0000000e+00

VECTORS WorkingNodalForces float
0.0000000e+00 0.0000000e+00 0.0000000e+00
0.0000000e+00 0.0000000e+00 0.0000000e+00
0.0000000e+00 0.0000000e+00 0.0000000e+00
0.0000000e+00 0.0000000e+00 0.0000000e+00
0.0000000e+00 0.0000000e+00 0.0000000e+00

VECTORS NodalVelocities float
0.0000000e+00 0.0000000e+00 0.0000000e+00
0.0000000e+00 0.0000000e+00 0.0000000e+00
0.0000000e+00 0.0000000e+00 0.0000000e+00
0.0000000e+00 0.0000000e+00 0.0000000e+00
0.0000000e+00 0.0000000e+00 0.0000000e+00

CELL_DATA 4

SCALARS Numero int
LOOKUP_TABLE default
0 0 0 0 

SCALARS appliedRSS float
LOOKUP_TABLE default
0.0000000e+00 0.0000000e+00 0.0000000e+00 0.0000000e+00 

FIELD FieldData 4

Burgers(b) 3 4 float
0 0 0
0 0 0
3.2300000e+00 0.0000000e+00 0.0000000e+00
3.2300000e+00 0.0000000e+00 0.0000000e+00

Orientations(t,n) 3 4 float
-1.0000000e+00 0.0000000e+00 0.0000000e+00
-1.0000000e+00 -0.0000000e+00 0.0000000e+00
0.0000000e+00 0.0000000e+00 1.0000000e+00
0.0000000e+00 0.0000000e+00 1.0000000e+00

iBurgers 4 4 int
0 0 0 0 
0 0 0 0 
2 2 -4 0 
2 2 -4 0 

iPlane 4 4 int
1 -1 0 0 
1 -1 0 0 
1 -1 0 0 
1 -1 0 0 

