# vtk DataFile Version 3.0
# # vtk output
ASCII
DATASET POLYDATA

FIELD FieldData 7
STEP 1 1 int
20
TIME 1 1 float
0.0002
VALUE0 1 1 float
0.0002
VALUE1 1 1 float
0.0
SIGMAapp 6 1 float
0.000000e+00 0.000000e+00 0.000000e+00 0.000000e+00 0.000000e+00 0.000000e+00
EPSplas 6 1 float
0.000000e+00 0.000000e+00 0.000000e+00 0.000000e+00 0.000000e+00 0.000000e+00
EPS 6 1 float
0.000000e+00 0.000000e+00 0.000000e+00 0.000000e+00 0.000000e+00 0.000000e+00

POINTS 20 float
-1.265679000000e+01 0.000000000000e+00 0.000000000000e+00
-1.492345666667e+01 0.000000000000e+00 0.000000000000e+00
-1.719012333333e+01 0.000000000000e+00 0.000000000000e+00
-1.945679000000e+01 0.000000000000e+00 0.000000000000e+00
-2.172345666667e+01 0.000000000000e+00 0.000000000000e+00
1.827654333333e+01 0.000000000000e+00 0.000000000000e+00
1.600987666667e+01 0.000000000000e+00 0.000000000000e+00
1.374321000000e+01 0.000000000000e+00 0.000000000000e+00
1.154321000000e+01 0.000000000000e+00 0.000000000000e+00
9.343210000000e+00 0.000000000000e+00 0.000000000000e+00
7.143210000000e+00 0.000000000000e+00 0.000000000000e+00
4.943210000000e+00 0.000000000000e+00 0.000000000000e+00
2.743210000000e+00 0.000000000000e+00 0.000000000000e+00
5.432100000000e-01 0.000000000000e+00 0.000000000000e+00
-1.656790000000e+00 0.000000000000e+00 0.000000000000e+00
-3.856790000000e+00 0.000000000000e+00 0.000000000000e+00
-6.056790000000e+00 0.000000000000e+00 0.000000000000e+00
-8.256790000000e+00 0.000000000000e+00 0.000000000000e+00
-1.045679000000e+01 0.000000000000e+00 0.000000000000e+00
-1.265679000000e+01 0.000000000000e+00 0.000000000000e+00

LINES 2 22
5 0 1 2 3 4 
15 5 6 7 8 9 10 11 12 13 14 15 16 17 18 19 

VERTICES 2 4
1 0
1 5


POINT_DATA 20

SCALARS tags int
LOOKUP_TABLE default
0 1 2 3 4 4 5 6 7 8 9 10 11 12 13 14 15 16 17 0 

SCALARS dof int
LOOKUP_TABLE default
2 2 2 2 2 2 2 2 2 2 2 2 2 2 2 2 2 2 2 2 

SCALARS consistency int
LOOKUP_TABLE default
1 1 1 1 1 1 1 1 1 1 1 1 1 1 1 1 1 1 1 1 

SCALARS rss float
LOOKUP_TABLE default
0.0000000e+00 0.0000000e+00 0.0000000e+00 0.0000000e+00 0.0000000e+00 0.0000000e+00 0.0000000e+00 0.0000000e+00 0.0000000e+00 0.0000000e+00 0.0000000e+00 0.0000000e+00 0.0000000e+00 0.0000000e+00 0.0000000e+00 0.0000000e+00 0.0000000e+00 0.0000000e+00 0.0000000e+00 0.0000000e+00 

VECTORS NodalForces float
-2.5878172e+04 0.0000000e+00 0.0000000e+00
0.0000000e+00 0.0000000e+00 0.0000000e+00
0.0000000e+00 0.0000000e+00 0.0000000e+00
0.0000000e+00 0.0000000e+00 0.0000000e+00
0.0000000e+00 0.0000000e+00 0.0000000e+00
0.0000000e+00 0.0000000e+00 0.0000000e+00
0.0000000e+00 0.0000000e+00 0.0000000e+00
0.0000000e+00 0.0000000e+00 0.0000000e+00
0.0000000e+00 0.0000000e+00 0.0000000e+00
0.0000000e+00 0.0000000e+00 0.0000000e+00
0.0000000e+00 0.0000000e+00 0.0000000e+00
0.0000000e+00 0.0000000e+00 0.0000000e+00
0.0000000e+00 0.0000000e+00 0.0000000e+00
0.0000000e+00 0.0000000e+00 0.0000000e+00
0.0000000e+00 0.0000000e+00 0.0000000e+00
0.0000000e+00 0.0000000e+00 0.0000000e+00
0.0000000e+00 0.0000000e+00 0.0000000e+00
0.0000000e+00 0.0000000e+00 0.0000000e+00
0.0000000e+00 0.0000000e+00 0.0000000e+00
2.5878172e+04 0.0000000e+00 0.0000000e+00

VECTORS WorkingNodalForces float
-2.5878172e+04 0.0000000e+00 0.0000000e+00
0.0000000e+00 0.0000000e+00 0.0000000e+00
0.0000000e+00 0.0000000e+00 0.0000000e+00
0.0000000e+00 0.0000000e+00 0.0000000e+00
0.0000000e+00 0.0000000e+00 0.0000000e+00
0.0000000e+00 0.0000000e+00 0.0000000e+00
0.0000000e+00 0.0000000e+00 0.0000000e+00
0.0000000e+00 0.0000000e+00 0.0000000e+00
0.0000000e+00 0.0000000e+00 0.0000000e+00
0.0000000e+00 0.0000000e+00 0.0000000e+00
0.0000000e+00 0.0000000e+00 0.0000000e+00
0.0000000e+00 0.0000000e+00 0.0000000e+00
0.0000000e+00 0.0000000e+00 0.0000000e+00
0.0000000e+00 0.0000000e+00 0.0000000e+00
0.0000000e+00 0.0000000e+00 0.0000000e+00
0.0000000e+00 0.0000000e+00 0.0000000e+00
0.0000000e+00 0.0000000e+00 0.0000000e+00
0.0000000e+00 0.0000000e+00 0.0000000e+00
0.0000000e+00 0.0000000e+00 0.0000000e+00
2.5878172e+04 0.0000000e+00 0.0000000e+00

VECTORS NodalVelocities float
0.0000000e+00 0.0000000e+00 0.0000000e+00
0.0000000e+00 0.0000000e+00 0.0000000e+00
0.0000000e+00 0.0000000e+00 0.0000000e+00
0.0000000e+00 0.0000000e+00 0.0000000e+00
0.0000000e+00 0.0000000e+00 0.0000000e+00
0.0000000e+00 0.0000000e+00 0.0000000e+00
0.0000000e+00 0.0000000e+00 0.0000000e+00
0.0000000e+00 0.0000000e+00 0.0000000e+00
0.0000000e+00 0.0000000e+00 0.0000000e+00
0.0000000e+00 0.0000000e+00 0.0000000e+00
0.0000000e+00 0.0000000e+00 0.0000000e+00
0.0000000e+00 0.0000000e+00 0.0000000e+00
0.0000000e+00 0.0000000e+00 0.0000000e+00
0.0000000e+00 0.0000000e+00 0.0000000e+00
0.0000000e+00 0.0000000e+00 0.0000000e+00
0.0000000e+00 0.0000000e+00 0.0000000e+00
0.0000000e+00 0.0000000e+00 0.0000000e+00
0.0000000e+00 0.0000000e+00 0.0000000e+00
0.0000000e+00 0.0000000e+00 0.0000000e+00
0.0000000e+00 0.0000000e+00 0.0000000e+00

CELL_DATA 4

SCALARS Numero int
LOOKUP_TABLE default
0 0 0 0 

SCALARS appliedRSS float
LOOKUP_TABLE default
0.0000000e+00 0.0000000e+00 0.0000000e+00 0.0000000e+00 

FIELD FieldData 4

Burgers(b) 3 4 float
0 0 0
0 0 0
3.2300000e+00 0.0000000e+00 0.0000000e+00
3.2300000e+00 0.0000000e+00 0.0000000e+00

Orientations(t,n) 3 4 float
-1.0000000e+00 0.0000000e+00 0.0000000e+00
-1.0000000e+00 0.0000000e+00 0.0000000e+00
0.0000000e+00 0.0000000e+00 1.0000000e+00
0.0000000e+00 0.0000000e+00 1.0000000e+00

iBurgers 4 4 int
0 0 0 0 
0 0 0 0 
2 2 -4 0 
2 2 -4 0 

iPlane 4 4 int
1 -1 0 0 
1 -1 0 0 
1 -1 0 0 
1 -1 0 0 

