# vtk DataFile Version 3.0
# topology
ASCII

DATASET POLYDATA

POINTS 18 float
-20 -44 -48.6
-20 -44 48.6
20 -44 -48.6
20 -44 48.6
20 44 -48.6
20 44 48.6
-20 44 -48.6
-20 44 48.6
-20 -44 -48.6
-20 44 -48.6
20 44 -48.6
20 -44 -48.6
-20 -44 -48.6
-20 -44 48.6
20 -44 48.6
20 44 48.6
-20 44 48.6
-20 -44 48.6

VERTICES 0 0

LINES 4 12
 2 0 1
 2 2 3
 2 4 5
 2 6 7

POLYGONS 2 10
4 8 9 10 11
4 13 14 15 16

CELL_DATA 6

SCALARS Radius float
LOOKUP_TABLE default
 0  0  0  0  0  0 
