#ver. 09 HCP-Zr [11-20],[0001],[-1100] + dislocation and loop, metal units, 10K
    6144 atoms
    1 atom types

-9.702360 9.702360 xlo xhi
-41.343840 41.343840 ylo yhi
-44.813281 44.813281 zlo zhi
0.0 0.0 0.0 xy xz yz

Masses

    1 91.224

Atoms

	1	1	-8.085300 -41.343840 -44.813281
	2	1	-8.125612 -38.759850 -42.946061
	3	1	-6.529238 -41.343840 -42.012451
	4	1	-6.569634 -38.759850 -40.145231
	5	1	-4.851180 -41.343840 -44.813281
	6	1	-4.891492 -38.759850 -42.946061
	7	1	-3.295118 -41.343840 -42.012451
	8	1	-3.335514 -38.759850 -40.145231
	9	1	-1.617060 -41.343840 -44.813281
	10	1	-1.657372 -38.759850 -42.946061
	11	1	-0.060998 -41.343840 -42.012451
	12	1	-0.101394 -38.759850 -40.145231
	13	1	1.617060 -41.343840 -44.813281
	14	1	1.576748 -38.759850 -42.946061
	15	1	3.173122 -41.343840 -42.012451
	16	1	3.132726 -38.759850 -40.145231
	17	1	4.851180 -41.343840 -44.813281
	18	1	4.810868 -38.759850 -42.946061
	19	1	6.407242 -41.343840 -42.012451
	20	1	6.366846 -38.759850 -40.145231
	21	1	8.085300 -41.343840 -44.813281
	22	1	8.044988 -38.759850 -42.946061
	23	1	9.641362 -41.343840 -42.012451
	24	1	9.600966 -38.759850 -40.145231
	25	1	-8.085052 -36.175860 -44.813281
	26	1	-8.123913 -33.591870 -42.946061
	27	1	-6.527871 -36.175860 -42.012451
	28	1	-6.565666 -33.591870 -40.145231
	29	1	-4.850932 -36.175860 -44.813281
	30	1	-4.889793 -33.591870 -42.946061
	31	1	-3.293751 -36.175860 -42.012451
	32	1	-3.331546 -33.591870 -40.145231
	33	1	-1.616812 -36.175860 -44.813281
	34	1	-1.655673 -33.591870 -42.946061
	35	1	-0.059631 -36.175860 -42.012451
	36	1	-0.097426 -33.591870 -40.145231
	37	1	1.617308 -36.175860 -44.813281
	38	1	1.578447 -33.591870 -42.946061
	39	1	3.174489 -36.175860 -42.012451
	40	1	3.136694 -33.591870 -40.145231
	41	1	4.851428 -36.175860 -44.813281
	42	1	4.812567 -33.591870 -42.946061
	43	1	6.408609 -36.175860 -42.012451
	44	1	6.370814 -33.591870 -40.145231
	45	1	8.085548 -36.175860 -44.813281
	46	1	8.046687 -33.591870 -42.946061
	47	1	9.642729 -36.175860 -42.012451
	48	1	9.604934 -33.591870 -40.145231
	49	1	-8.084838 -31.007880 -44.813281
	50	1	-8.121002 -28.423890 -42.946061
	51	1	-6.524442 -31.007880 -42.012451
	52	1	-6.558559 -28.423890 -40.145231
	53	1	-4.850718 -31.007880 -44.813281
	54	1	-4.886882 -28.423890 -42.946061
	55	1	-3.290322 -31.007880 -42.012451
	56	1	-3.324439 -28.423890 -40.145231
	57	1	-1.616598 -31.007880 -44.813281
	58	1	-1.652762 -28.423890 -42.946061
	59	1	-0.056202 -31.007880 -42.012451
	60	1	-0.090319 -28.423890 -40.145231
	61	1	1.617522 -31.007880 -44.813281
	62	1	1.581358 -28.423890 -42.946061
	63	1	3.177918 -31.007880 -42.012451
	64	1	3.143801 -28.423890 -40.145231
	65	1	4.851642 -31.007880 -44.813281
	66	1	4.815478 -28.423890 -42.946061
	67	1	6.412038 -31.007880 -42.012451
	68	1	6.377921 -28.423890 -40.145231
	69	1	8.085762 -31.007880 -44.813281
	70	1	8.049598 -28.423890 -42.946061
	71	1	9.646158 -31.007880 -42.012451
	72	1	9.612041 -28.423890 -40.145231
	73	1	-8.084656 -25.839900 -44.813281
	74	1	-8.117312 -23.255910 -42.946061
	75	1	-6.519464 -25.839900 -42.012451
	76	1	-6.549417 -23.255910 -40.145231
	77	1	-4.850536 -25.839900 -44.813281
	78	1	-4.883192 -23.255910 -42.946061
	79	1	-3.285344 -25.839900 -42.012451
	80	1	-3.315297 -23.255910 -40.145231
	81	1	-1.616416 -25.839900 -44.813281
	82	1	-1.649072 -23.255910 -42.946061
	83	1	-0.051224 -25.839900 -42.012451
	84	1	-0.081177 -23.255910 -40.145231
	85	1	1.617704 -25.839900 -44.813281
	86	1	1.585048 -23.255910 -42.946061
	87	1	3.182896 -25.839900 -42.012451
	88	1	3.152943 -23.255910 -40.145231
	89	1	4.851824 -25.839900 -44.813281
	90	1	4.819168 -23.255910 -42.946061
	91	1	6.417016 -25.839900 -42.012451
	92	1	6.387063 -23.255910 -40.145231
	93	1	8.085944 -25.839900 -44.813281
	94	1	8.053288 -23.255910 -42.946061
	95	1	9.651136 -25.839900 -42.012451
	96	1	9.621183 -23.255910 -40.145231
	97	1	-8.084507 -20.671920 -44.813281
	98	1	-8.113406 -18.087930 -42.946061
	99	1	-6.513705 -20.671920 -42.012451
	100	1	-6.539678 -18.087930 -40.145231
	101	1	-4.850387 -20.671920 -44.813281
	102	1	-4.879286 -18.087930 -42.946061
	103	1	-3.279585 -20.671920 -42.012451
	104	1	-3.305558 -18.087930 -40.145231
	105	1	-1.616267 -20.671920 -44.813281
	106	1	-1.645166 -18.087930 -42.946061
	107	1	-0.045465 -20.671920 -42.012451
	108	1	-0.071438 -18.087930 -40.145231
	109	1	1.617853 -20.671920 -44.813281
	110	1	1.588954 -18.087930 -42.946061
	111	1	3.188655 -20.671920 -42.012451
	112	1	3.162682 -18.087930 -40.145231
	113	1	4.851973 -20.671920 -44.813281
	114	1	4.823074 -18.087930 -42.946061
	115	1	6.422775 -20.671920 -42.012451
	116	1	6.396802 -18.087930 -40.145231
	117	1	8.086093 -20.671920 -44.813281
	118	1	8.057194 -18.087930 -42.946061
	119	1	9.656895 -20.671920 -42.012451
	120	1	9.630922 -18.087930 -40.145231
	121	1	-8.084392 -15.503940 -44.813281
	122	1	-8.109871 -12.919950 -42.946061
	123	1	-6.508053 -15.503940 -42.012451
	124	1	-6.530844 -12.919950 -40.145231
	125	1	-4.850272 -15.503940 -44.813281
	126	1	-4.875751 -12.919950 -42.946061
	127	1	-3.273933 -15.503940 -42.012451
	128	1	-3.296724 -12.919950 -40.145231
	129	1	-1.616152 -15.503940 -44.813281
	130	1	-1.641631 -12.919950 -42.946061
	131	1	-0.039813 -15.503940 -42.012451
	132	1	-0.062604 -12.919950 -40.145231
	133	1	1.617968 -15.503940 -44.813281
	134	1	1.592489 -12.919950 -42.946061
	135	1	3.194307 -15.503940 -42.012451
	136	1	3.171516 -12.919950 -40.145231
	137	1	4.852088 -15.503940 -44.813281
	138	1	4.826609 -12.919950 -42.946061
	139	1	6.428427 -15.503940 -42.012451
	140	1	6.405636 -12.919950 -40.145231
	141	1	8.086208 -15.503940 -44.813281
	142	1	8.060729 -12.919950 -42.946061
	143	1	9.662547 -15.503940 -42.012451
	144	1	9.639756 -12.919950 -40.145231
	145	1	-8.084309 -10.335960 -44.813281
	146	1	-8.107217 -7.751970 -42.946061
	147	1	-6.503352 -10.335960 -42.012451
	148	1	-6.524203 -7.751970 -40.145231
	149	1	-4.850189 -10.335960 -44.813281
	150	1	-4.873097 -7.751970 -42.946061
	151	1	-3.269232 -10.335960 -42.012451
	152	1	-3.290083 -7.751970 -40.145231
	153	1	-1.616069 -10.335960 -44.813281
	154	1	-1.638977 -7.751970 -42.946061
	155	1	-0.035112 -10.335960 -42.012451
	156	1	-0.055963 -7.751970 -40.145231
	157	1	1.618051 -10.335960 -44.813281
	158	1	1.595143 -7.751970 -42.946061
	159	1	3.199008 -10.335960 -42.012451
	160	1	3.178157 -7.751970 -40.145231
	161	1	4.852171 -10.335960 -44.813281
	162	1	4.829263 -7.751970 -42.946061
	163	1	6.433128 -10.335960 -42.012451
	164	1	6.412277 -7.751970 -40.145231
	165	1	8.086291 -10.335960 -44.813281
	166	1	8.063383 -7.751970 -42.946061
	167	1	9.667248 -10.335960 -42.012451
	168	1	9.646397 -7.751970 -40.145231
	169	1	-8.084260 -5.167980 -44.813281
	170	1	-8.105799 -2.583990 -42.946061
	171	1	-6.500261 -5.167980 -42.012451
	172	1	-6.520658 -2.583990 -40.145231
	173	1	-4.850140 -5.167980 -44.813281
	174	1	-4.871679 -2.583990 -42.946061
	175	1	-3.266141 -5.167980 -42.012451
	176	1	-3.286538 -2.583990 -40.145231
	177	1	-1.616020 -5.167980 -44.813281
	178	1	-1.637559 -2.583990 -42.946061
	179	1	-0.032021 -5.167980 -42.012451
	180	1	-0.052418 -2.583990 -40.145231
	181	1	1.618100 -5.167980 -44.813281
	182	1	1.596561 -2.583990 -42.946061
	183	1	3.202099 -5.167980 -42.012451
	184	1	3.181702 -2.583990 -40.145231
	185	1	4.852220 -5.167980 -44.813281
	186	1	4.830681 -2.583990 -42.946061
	187	1	6.436219 -5.167980 -42.012451
	188	1	6.415822 -2.583990 -40.145231
	189	1	8.086340 -5.167980 -44.813281
	190	1	8.064801 -2.583990 -42.946061
	191	1	9.670339 -5.167980 -42.012451
	192	1	9.649942 -2.583990 -40.145231
	193	1	-8.084243 0.000000 -44.813281
	194	1	-8.105799 2.583990 -42.946061
	195	1	-6.499185 0.000000 -42.012451
	196	1	-6.520658 2.583990 -40.145231
	197	1	-4.850123 0.000000 -44.813281
	198	1	-4.871679 2.583990 -42.946061
	199	1	-3.265065 0.000000 -42.012451
	200	1	-3.286538 2.583990 -40.145231
	201	1	-1.616003 0.000000 -44.813281
	202	1	-1.637559 2.583990 -42.946061
	203	1	-0.030945 0.000000 -42.012451
	204	1	-0.052418 2.583990 -40.145231
	205	1	1.618117 0.000000 -44.813281
	206	1	1.596561 2.583990 -42.946061
	207	1	3.203175 0.000000 -42.012451
	208	1	3.181702 2.583990 -40.145231
	209	1	4.852237 0.000000 -44.813281
	210	1	4.830681 2.583990 -42.946061
	211	1	6.437295 0.000000 -42.012451
	212	1	6.415822 2.583990 -40.145231
	213	1	8.086357 0.000000 -44.813281
	214	1	8.064801 2.583990 -42.946061
	215	1	9.671415 0.000000 -42.012451
	216	1	9.649942 2.583990 -40.145231
	217	1	-8.084260 5.167980 -44.813281
	218	1	-8.107217 7.751970 -42.946061
	219	1	-6.500261 5.167980 -42.012451
	220	1	-6.524203 7.751970 -40.145231
	221	1	-4.850140 5.167980 -44.813281
	222	1	-4.873097 7.751970 -42.946061
	223	1	-3.266141 5.167980 -42.012451
	224	1	-3.290083 7.751970 -40.145231
	225	1	-1.616020 5.167980 -44.813281
	226	1	-1.638977 7.751970 -42.946061
	227	1	-0.032021 5.167980 -42.012451
	228	1	-0.055963 7.751970 -40.145231
	229	1	1.618100 5.167980 -44.813281
	230	1	1.595143 7.751970 -42.946061
	231	1	3.202099 5.167980 -42.012451
	232	1	3.178157 7.751970 -40.145231
	233	1	4.852220 5.167980 -44.813281
	234	1	4.829263 7.751970 -42.946061
	235	1	6.436219 5.167980 -42.012451
	236	1	6.412277 7.751970 -40.145231
	237	1	8.086340 5.167980 -44.813281
	238	1	8.063383 7.751970 -42.946061
	239	1	9.670339 5.167980 -42.012451
	240	1	9.646397 7.751970 -40.145231
	241	1	-8.084309 10.335960 -44.813281
	242	1	-8.109871 12.919950 -42.946061
	243	1	-6.503352 10.335960 -42.012451
	244	1	-6.530844 12.919950 -40.145231
	245	1	-4.850189 10.335960 -44.813281
	246	1	-4.875751 12.919950 -42.946061
	247	1	-3.269232 10.335960 -42.012451
	248	1	-3.296724 12.919950 -40.145231
	249	1	-1.616069 10.335960 -44.813281
	250	1	-1.641631 12.919950 -42.946061
	251	1	-0.035112 10.335960 -42.012451
	252	1	-0.062604 12.919950 -40.145231
	253	1	1.618051 10.335960 -44.813281
	254	1	1.592489 12.919950 -42.946061
	255	1	3.199008 10.335960 -42.012451
	256	1	3.171516 12.919950 -40.145231
	257	1	4.852171 10.335960 -44.813281
	258	1	4.826609 12.919950 -42.946061
	259	1	6.433128 10.335960 -42.012451
	260	1	6.405636 12.919950 -40.145231
	261	1	8.086291 10.335960 -44.813281
	262	1	8.060729 12.919950 -42.946061
	263	1	9.667248 10.335960 -42.012451
	264	1	9.639756 12.919950 -40.145231
	265	1	-8.084392 15.503940 -44.813281
	266	1	-8.113406 18.087930 -42.946061
	267	1	-6.508053 15.503940 -42.012451
	268	1	-6.539678 18.087930 -40.145231
	269	1	-4.850272 15.503940 -44.813281
	270	1	-4.879286 18.087930 -42.946061
	271	1	-3.273933 15.503940 -42.012451
	272	1	-3.305558 18.087930 -40.145231
	273	1	-1.616152 15.503940 -44.813281
	274	1	-1.645166 18.087930 -42.946061
	275	1	-0.039813 15.503940 -42.012451
	276	1	-0.071438 18.087930 -40.145231
	277	1	1.617968 15.503940 -44.813281
	278	1	1.588954 18.087930 -42.946061
	279	1	3.194307 15.503940 -42.012451
	280	1	3.162682 18.087930 -40.145231
	281	1	4.852088 15.503940 -44.813281
	282	1	4.823074 18.087930 -42.946061
	283	1	6.428427 15.503940 -42.012451
	284	1	6.396802 18.087930 -40.145231
	285	1	8.086208 15.503940 -44.813281
	286	1	8.057194 18.087930 -42.946061
	287	1	9.662547 15.503940 -42.012451
	288	1	9.630922 18.087930 -40.145231
	289	1	-8.084507 20.671920 -44.813281
	290	1	-8.117312 23.255910 -42.946061
	291	1	-6.513705 20.671920 -42.012451
	292	1	-6.549417 23.255910 -40.145231
	293	1	-4.850387 20.671920 -44.813281
	294	1	-4.883192 23.255910 -42.946061
	295	1	-3.279585 20.671920 -42.012451
	296	1	-3.315297 23.255910 -40.145231
	297	1	-1.616267 20.671920 -44.813281
	298	1	-1.649072 23.255910 -42.946061
	299	1	-0.045465 20.671920 -42.012451
	300	1	-0.081177 23.255910 -40.145231
	301	1	1.617853 20.671920 -44.813281
	302	1	1.585048 23.255910 -42.946061
	303	1	3.188655 20.671920 -42.012451
	304	1	3.152943 23.255910 -40.145231
	305	1	4.851973 20.671920 -44.813281
	306	1	4.819168 23.255910 -42.946061
	307	1	6.422775 20.671920 -42.012451
	308	1	6.387063 23.255910 -40.145231
	309	1	8.086093 20.671920 -44.813281
	310	1	8.053288 23.255910 -42.946061
	311	1	9.656895 20.671920 -42.012451
	312	1	9.621183 23.255910 -40.145231
	313	1	-8.084656 25.839900 -44.813281
	314	1	-8.121002 28.423890 -42.946061
	315	1	-6.519464 25.839900 -42.012451
	316	1	-6.558559 28.423890 -40.145231
	317	1	-4.850536 25.839900 -44.813281
	318	1	-4.886882 28.423890 -42.946061
	319	1	-3.285344 25.839900 -42.012451
	320	1	-3.324439 28.423890 -40.145231
	321	1	-1.616416 25.839900 -44.813281
	322	1	-1.652762 28.423890 -42.946061
	323	1	-0.051224 25.839900 -42.012451
	324	1	-0.090319 28.423890 -40.145231
	325	1	1.617704 25.839900 -44.813281
	326	1	1.581358 28.423890 -42.946061
	327	1	3.182896 25.839900 -42.012451
	328	1	3.143801 28.423890 -40.145231
	329	1	4.851824 25.839900 -44.813281
	330	1	4.815478 28.423890 -42.946061
	331	1	6.417016 25.839900 -42.012451
	332	1	6.377921 28.423890 -40.145231
	333	1	8.085944 25.839900 -44.813281
	334	1	8.049598 28.423890 -42.946061
	335	1	9.651136 25.839900 -42.012451
	336	1	9.612041 28.423890 -40.145231
	337	1	-8.084838 31.007880 -44.813281
	338	1	-8.123913 33.591870 -42.946061
	339	1	-6.524442 31.007880 -42.012451
	340	1	-6.565666 33.591870 -40.145231
	341	1	-4.850718 31.007880 -44.813281
	342	1	-4.889793 33.591870 -42.946061
	343	1	-3.290322 31.007880 -42.012451
	344	1	-3.331546 33.591870 -40.145231
	345	1	-1.616598 31.007880 -44.813281
	346	1	-1.655673 33.591870 -42.946061
	347	1	-0.056202 31.007880 -42.012451
	348	1	-0.097426 33.591870 -40.145231
	349	1	1.617522 31.007880 -44.813281
	350	1	1.578447 33.591870 -42.946061
	351	1	3.177918 31.007880 -42.012451
	352	1	3.136694 33.591870 -40.145231
	353	1	4.851642 31.007880 -44.813281
	354	1	4.812567 33.591870 -42.946061
	355	1	6.412038 31.007880 -42.012451
	356	1	6.370814 33.591870 -40.145231
	357	1	8.085762 31.007880 -44.813281
	358	1	8.046687 33.591870 -42.946061
	359	1	9.646158 31.007880 -42.012451
	360	1	9.604934 33.591870 -40.145231
	361	1	-8.085052 36.175860 -44.813281
	362	1	-8.125612 38.759850 -42.946061
	363	1	-6.527871 36.175860 -42.012451
	364	1	-6.569634 38.759850 -40.145231
	365	1	-4.850932 36.175860 -44.813281
	366	1	-4.891492 38.759850 -42.946061
	367	1	-3.293751 36.175860 -42.012451
	368	1	-3.335514 38.759850 -40.145231
	369	1	-1.616812 36.175860 -44.813281
	370	1	-1.657372 38.759850 -42.946061
	371	1	-0.059631 36.175860 -42.012451
	372	1	-0.101394 38.759850 -40.145231
	373	1	1.617308 36.175860 -44.813281
	374	1	1.576748 38.759850 -42.946061
	375	1	3.174489 36.175860 -42.012451
	376	1	3.132726 38.759850 -40.145231
	377	1	4.851428 36.175860 -44.813281
	378	1	4.810868 38.759850 -42.946061
	379	1	6.408609 36.175860 -42.012451
	380	1	6.366846 38.759850 -40.145231
	381	1	8.085548 36.175860 -44.813281
	382	1	8.044988 38.759850 -42.946061
	383	1	9.642729 36.175860 -42.012451
	384	1	9.600966 38.759850 -40.145231
	385	1	-8.207966 -41.343840 -39.211621
	386	1	-8.248891 -38.759850 -37.344401
	387	1	-6.653954 -41.343840 -36.410791
	388	1	-6.695878 -38.759850 -34.543571
	389	1	-4.973846 -41.343840 -39.211621
	390	1	-5.014771 -38.759850 -37.344401
	391	1	-3.419834 -41.343840 -36.410791
	392	1	-3.461758 -38.759850 -34.543571
	393	1	-1.739726 -41.343840 -39.211621
	394	1	-1.780651 -38.759850 -37.344401
	395	1	-0.185714 -41.343840 -36.410791
	396	1	-0.227638 -38.759850 -34.543571
	397	1	1.494394 -41.343840 -39.211621
	398	1	1.453469 -38.759850 -37.344401
	399	1	3.048406 -41.343840 -36.410791
	400	1	3.006482 -38.759850 -34.543571
	401	1	4.728514 -41.343840 -39.211621
	402	1	4.687589 -38.759850 -37.344401
	403	1	6.282526 -41.343840 -36.410791
	404	1	6.240602 -38.759850 -34.543571
	405	1	7.962634 -41.343840 -39.211621
	406	1	7.921709 -38.759850 -37.344401
	407	1	9.516646 -41.343840 -36.410791
	408	1	9.474722 -38.759850 -34.543571
	409	1	-8.205426 -36.175860 -39.211621
	410	1	-8.242478 -33.591870 -37.344401
	411	1	-6.650133 -36.175860 -36.410791
	412	1	-6.686731 -33.591870 -34.543571
	413	1	-4.971306 -36.175860 -39.211621
	414	1	-5.008358 -33.591870 -37.344401
	415	1	-3.416013 -36.175860 -36.410791
	416	1	-3.452611 -33.591870 -34.543571
	417	1	-1.737186 -36.175860 -39.211621
	418	1	-1.774238 -33.591870 -37.344401
	419	1	-0.181893 -36.175860 -36.410791
	420	1	-0.218491 -33.591870 -34.543571
	421	1	1.496934 -36.175860 -39.211621
	422	1	1.459882 -33.591870 -37.344401
	423	1	3.052227 -36.175860 -36.410791
	424	1	3.015629 -33.591870 -34.543571
	425	1	4.731054 -36.175860 -39.211621
	426	1	4.694002 -33.591870 -37.344401
	427	1	6.286347 -36.175860 -36.410791
	428	1	6.249749 -33.591870 -34.543571
	429	1	7.965174 -36.175860 -39.211621
	430	1	7.928122 -33.591870 -37.344401
	431	1	9.520467 -36.175860 -36.410791
	432	1	9.483869 -33.591870 -34.543571
	433	1	-8.198630 -31.007880 -39.211621
	434	1	-8.230844 -28.423890 -37.344401
	435	1	-6.639658 -31.007880 -36.410791
	436	1	-6.670024 -28.423890 -34.543571
	437	1	-4.964510 -31.007880 -39.211621
	438	1	-4.996724 -28.423890 -37.344401
	439	1	-3.405538 -31.007880 -36.410791
	440	1	-3.435904 -28.423890 -34.543571
	441	1	-1.730390 -31.007880 -39.211621
	442	1	-1.762604 -28.423890 -37.344401
	443	1	-0.171418 -31.007880 -36.410791
	444	1	-0.201784 -28.423890 -34.543571
	445	1	1.503730 -31.007880 -39.211621
	446	1	1.471516 -28.423890 -37.344401
	447	1	3.062702 -31.007880 -36.410791
	448	1	3.032336 -28.423890 -34.543571
	449	1	4.737850 -31.007880 -39.211621
	450	1	4.705636 -28.423890 -37.344401
	451	1	6.296822 -31.007880 -36.410791
	452	1	6.266456 -28.423890 -34.543571
	453	1	7.971970 -31.007880 -39.211621
	454	1	7.939756 -28.423890 -37.344401
	455	1	9.530942 -31.007880 -36.410791
	456	1	9.500576 -28.423890 -34.543571
	457	1	-8.188625 -25.839900 -39.211621
	458	1	-8.215819 -23.255910 -37.344401
	459	1	-6.624154 -25.839900 -36.410791
	460	1	-6.648397 -23.255910 -34.543571
	461	1	-4.954505 -25.839900 -39.211621
	462	1	-4.981699 -23.255910 -37.344401
	463	1	-3.390034 -25.839900 -36.410791
	464	1	-3.414277 -23.255910 -34.543571
	465	1	-1.720385 -25.839900 -39.211621
	466	1	-1.747579 -23.255910 -37.344401
	467	1	-0.155914 -25.839900 -36.410791
	468	1	-0.180157 -23.255910 -34.543571
	469	1	1.513735 -25.839900 -39.211621
	470	1	1.486541 -23.255910 -37.344401
	471	1	3.078206 -25.839900 -36.410791
	472	1	3.053963 -23.255910 -34.543571
	473	1	4.747855 -25.839900 -39.211621
	474	1	4.720661 -23.255910 -37.344401
	475	1	6.312326 -25.839900 -36.410791
	476	1	6.288083 -23.255910 -34.543571
	477	1	7.981975 -25.839900 -39.211621
	478	1	7.954781 -23.255910 -37.344401
	479	1	9.546446 -25.839900 -36.410791
	480	1	9.522203 -23.255910 -34.543571
	481	1	-8.176989 -20.671920 -39.211621
	482	1	-8.199799 -18.087930 -37.344401
	483	1	-6.606092 -20.671920 -36.410791
	484	1	-6.625345 -18.087930 -34.543571
	485	1	-4.942869 -20.671920 -39.211621
	486	1	-4.965679 -18.087930 -37.344401
	487	1	-3.371972 -20.671920 -36.410791
	488	1	-3.391225 -18.087930 -34.543571
	489	1	-1.708749 -20.671920 -39.211621
	490	1	-1.731559 -18.087930 -37.344401
	491	1	-0.137852 -20.671920 -36.410791
	492	1	-0.157105 -18.087930 -34.543571
	493	1	1.525371 -20.671920 -39.211621
	494	1	1.502561 -18.087930 -37.344401
	495	1	3.096268 -20.671920 -36.410791
	496	1	3.077015 -18.087930 -34.543571
	497	1	4.759491 -20.671920 -39.211621
	498	1	4.736681 -18.087930 -37.344401
	499	1	6.330388 -20.671920 -36.410791
	500	1	6.311135 -18.087930 -34.543571
	501	1	7.993611 -20.671920 -39.211621
	502	1	7.970801 -18.087930 -37.344401
	503	1	9.564508 -20.671920 -36.410791
	504	1	9.545255 -18.087930 -34.543571
	505	1	-8.165549 -15.503940 -39.211621
	506	1	-8.185279 -12.919950 -37.344401
	507	1	-6.588348 -15.503940 -36.410791
	508	1	-6.604507 -12.919950 -34.543571
	509	1	-4.931429 -15.503940 -39.211621
	510	1	-4.951159 -12.919950 -37.344401
	511	1	-3.354228 -15.503940 -36.410791
	512	1	-3.370387 -12.919950 -34.543571
	513	1	-1.697309 -15.503940 -39.211621
	514	1	-1.717039 -12.919950 -37.344401
	515	1	-0.120108 -15.503940 -36.410791
	516	1	-0.136267 -12.919950 -34.543571
	517	1	1.536811 -15.503940 -39.211621
	518	1	1.517081 -12.919950 -37.344401
	519	1	3.114012 -15.503940 -36.410791
	520	1	3.097853 -12.919950 -34.543571
	521	1	4.770931 -15.503940 -39.211621
	522	1	4.751201 -12.919950 -37.344401
	523	1	6.348132 -15.503940 -36.410791
	524	1	6.331973 -12.919950 -34.543571
	525	1	8.005051 -15.503940 -39.211621
	526	1	7.985321 -12.919950 -37.344401
	527	1	9.582252 -15.503940 -36.410791
	528	1	9.566093 -12.919950 -34.543571
	529	1	-8.156033 -10.335960 -39.211621
	530	1	-8.174387 -7.751970 -37.344401
	531	1	-6.573619 -10.335960 -36.410791
	532	1	-6.588932 -7.751970 -34.543571
	533	1	-4.921913 -10.335960 -39.211621
	534	1	-4.940267 -7.751970 -37.344401
	535	1	-3.339499 -10.335960 -36.410791
	536	1	-3.354812 -7.751970 -34.543571
	537	1	-1.687793 -10.335960 -39.211621
	538	1	-1.706147 -7.751970 -37.344401
	539	1	-0.105379 -10.335960 -36.410791
	540	1	-0.120692 -7.751970 -34.543571
	541	1	1.546327 -10.335960 -39.211621
	542	1	1.527973 -7.751970 -37.344401
	543	1	3.128741 -10.335960 -36.410791
	544	1	3.113428 -7.751970 -34.543571
	545	1	4.780447 -10.335960 -39.211621
	546	1	4.762093 -7.751970 -37.344401
	547	1	6.362861 -10.335960 -36.410791
	548	1	6.347548 -7.751970 -34.543571
	549	1	8.014567 -10.335960 -39.211621
	550	1	7.996213 -7.751970 -37.344401
	551	1	9.596981 -10.335960 -36.410791
	552	1	9.581668 -7.751970 -34.543571
	553	1	-8.149781 -5.167980 -39.211621
	554	1	-8.168581 -2.583990 -37.344401
	555	1	-6.563966 -5.167980 -36.410791
	556	1	-6.580656 -2.583990 -34.543571
	557	1	-4.915661 -5.167980 -39.211621
	558	1	-4.934461 -2.583990 -37.344401
	559	1	-3.329846 -5.167980 -36.410791
	560	1	-3.346536 -2.583990 -34.543571
	561	1	-1.681541 -5.167980 -39.211621
	562	1	-1.700341 -2.583990 -37.344401
	563	1	-0.095726 -5.167980 -36.410791
	564	1	-0.112416 -2.583990 -34.543571
	565	1	1.552579 -5.167980 -39.211621
	566	1	1.533779 -2.583990 -37.344401
	567	1	3.138394 -5.167980 -36.410791
	568	1	3.121704 -2.583990 -34.543571
	569	1	4.786699 -5.167980 -39.211621
	570	1	4.767899 -2.583990 -37.344401
	571	1	6.372514 -5.167980 -36.410791
	572	1	6.355824 -2.583990 -34.543571
	573	1	8.020819 -5.167980 -39.211621
	574	1	8.002019 -2.583990 -37.344401
	575	1	9.606634 -5.167980 -36.410791
	576	1	9.589944 -2.583990 -34.543571
	577	1	-8.147607 0.000000 -39.211621
	578	1	-8.168581 2.583990 -37.344401
	579	1	-6.560616 0.000000 -36.410791
	580	1	-6.580656 2.583990 -34.543571
	581	1	-4.913487 0.000000 -39.211621
	582	1	-4.934461 2.583990 -37.344401
	583	1	-3.326496 0.000000 -36.410791
	584	1	-3.346536 2.583990 -34.543571
	585	1	-1.679367 0.000000 -39.211621
	586	1	-1.700341 2.583990 -37.344401
	587	1	-0.092376 0.000000 -36.410791
	588	1	-0.112416 2.583990 -34.543571
	589	1	1.554753 0.000000 -39.211621
	590	1	1.533779 2.583990 -37.344401
	591	1	3.141744 0.000000 -36.410791
	592	1	3.121704 2.583990 -34.543571
	593	1	4.788873 0.000000 -39.211621
	594	1	4.767899 2.583990 -37.344401
	595	1	6.375864 0.000000 -36.410791
	596	1	6.355824 2.583990 -34.543571
	597	1	8.022993 0.000000 -39.211621
	598	1	8.002019 2.583990 -37.344401
	599	1	9.609984 0.000000 -36.410791
	600	1	9.589944 2.583990 -34.543571
	601	1	-8.149781 5.167980 -39.211621
	602	1	-8.174387 7.751970 -37.344401
	603	1	-6.563966 5.167980 -36.410791
	604	1	-6.588932 7.751970 -34.543571
	605	1	-4.915661 5.167980 -39.211621
	606	1	-4.940267 7.751970 -37.344401
	607	1	-3.329846 5.167980 -36.410791
	608	1	-3.354812 7.751970 -34.543571
	609	1	-1.681541 5.167980 -39.211621
	610	1	-1.706147 7.751970 -37.344401
	611	1	-0.095726 5.167980 -36.410791
	612	1	-0.120692 7.751970 -34.543571
	613	1	1.552579 5.167980 -39.211621
	614	1	1.527973 7.751970 -37.344401
	615	1	3.138394 5.167980 -36.410791
	616	1	3.113428 7.751970 -34.543571
	617	1	4.786699 5.167980 -39.211621
	618	1	4.762093 7.751970 -37.344401
	619	1	6.372514 5.167980 -36.410791
	620	1	6.347548 7.751970 -34.543571
	621	1	8.020819 5.167980 -39.211621
	622	1	7.996213 7.751970 -37.344401
	623	1	9.606634 5.167980 -36.410791
	624	1	9.581668 7.751970 -34.543571
	625	1	-8.156033 10.335960 -39.211621
	626	1	-8.185279 12.919950 -37.344401
	627	1	-6.573619 10.335960 -36.410791
	628	1	-6.604507 12.919950 -34.543571
	629	1	-4.921913 10.335960 -39.211621
	630	1	-4.951159 12.919950 -37.344401
	631	1	-3.339499 10.335960 -36.410791
	632	1	-3.370387 12.919950 -34.543571
	633	1	-1.687793 10.335960 -39.211621
	634	1	-1.717039 12.919950 -37.344401
	635	1	-0.105379 10.335960 -36.410791
	636	1	-0.136267 12.919950 -34.543571
	637	1	1.546327 10.335960 -39.211621
	638	1	1.517081 12.919950 -37.344401
	639	1	3.128741 10.335960 -36.410791
	640	1	3.097853 12.919950 -34.543571
	641	1	4.780447 10.335960 -39.211621
	642	1	4.751201 12.919950 -37.344401
	643	1	6.362861 10.335960 -36.410791
	644	1	6.331973 12.919950 -34.543571
	645	1	8.014567 10.335960 -39.211621
	646	1	7.985321 12.919950 -37.344401
	647	1	9.596981 10.335960 -36.410791
	648	1	9.566093 12.919950 -34.543571
	649	1	-8.165549 15.503940 -39.211621
	650	1	-8.199799 18.087930 -37.344401
	651	1	-6.588348 15.503940 -36.410791
	652	1	-6.625345 18.087930 -34.543571
	653	1	-4.931429 15.503940 -39.211621
	654	1	-4.965679 18.087930 -37.344401
	655	1	-3.354228 15.503940 -36.410791
	656	1	-3.391225 18.087930 -34.543571
	657	1	-1.697309 15.503940 -39.211621
	658	1	-1.731559 18.087930 -37.344401
	659	1	-0.120108 15.503940 -36.410791
	660	1	-0.157105 18.087930 -34.543571
	661	1	1.536811 15.503940 -39.211621
	662	1	1.502561 18.087930 -37.344401
	663	1	3.114012 15.503940 -36.410791
	664	1	3.077015 18.087930 -34.543571
	665	1	4.770931 15.503940 -39.211621
	666	1	4.736681 18.087930 -37.344401
	667	1	6.348132 15.503940 -36.410791
	668	1	6.311135 18.087930 -34.543571
	669	1	8.005051 15.503940 -39.211621
	670	1	7.970801 18.087930 -37.344401
	671	1	9.582252 15.503940 -36.410791
	672	1	9.545255 18.087930 -34.543571
	673	1	-8.176989 20.671920 -39.211621
	674	1	-8.215819 23.255910 -37.344401
	675	1	-6.606092 20.671920 -36.410791
	676	1	-6.648397 23.255910 -34.543571
	677	1	-4.942869 20.671920 -39.211621
	678	1	-4.981699 23.255910 -37.344401
	679	1	-3.371972 20.671920 -36.410791
	680	1	-3.414277 23.255910 -34.543571
	681	1	-1.708749 20.671920 -39.211621
	682	1	-1.747579 23.255910 -37.344401
	683	1	-0.137852 20.671920 -36.410791
	684	1	-0.180157 23.255910 -34.543571
	685	1	1.525371 20.671920 -39.211621
	686	1	1.486541 23.255910 -37.344401
	687	1	3.096268 20.671920 -36.410791
	688	1	3.053963 23.255910 -34.543571
	689	1	4.759491 20.671920 -39.211621
	690	1	4.720661 23.255910 -37.344401
	691	1	6.330388 20.671920 -36.410791
	692	1	6.288083 23.255910 -34.543571
	693	1	7.993611 20.671920 -39.211621
	694	1	7.954781 23.255910 -37.344401
	695	1	9.564508 20.671920 -36.410791
	696	1	9.522203 23.255910 -34.543571
	697	1	-8.188625 25.839900 -39.211621
	698	1	-8.230844 28.423890 -37.344401
	699	1	-6.624154 25.839900 -36.410791
	700	1	-6.670024 28.423890 -34.543571
	701	1	-4.954505 25.839900 -39.211621
	702	1	-4.996724 28.423890 -37.344401
	703	1	-3.390034 25.839900 -36.410791
	704	1	-3.435904 28.423890 -34.543571
	705	1	-1.720385 25.839900 -39.211621
	706	1	-1.762604 28.423890 -37.344401
	707	1	-0.155914 25.839900 -36.410791
	708	1	-0.201784 28.423890 -34.543571
	709	1	1.513735 25.839900 -39.211621
	710	1	1.471516 28.423890 -37.344401
	711	1	3.078206 25.839900 -36.410791
	712	1	3.032336 28.423890 -34.543571
	713	1	4.747855 25.839900 -39.211621
	714	1	4.705636 28.423890 -37.344401
	715	1	6.312326 25.839900 -36.410791
	716	1	6.266456 28.423890 -34.543571
	717	1	7.981975 25.839900 -39.211621
	718	1	7.939756 28.423890 -37.344401
	719	1	9.546446 25.839900 -36.410791
	720	1	9.500576 28.423890 -34.543571
	721	1	-8.198630 31.007880 -39.211621
	722	1	-8.242478 33.591870 -37.344401
	723	1	-6.639658 31.007880 -36.410791
	724	1	-6.686731 33.591870 -34.543571
	725	1	-4.964510 31.007880 -39.211621
	726	1	-5.008358 33.591870 -37.344401
	727	1	-3.405538 31.007880 -36.410791
	728	1	-3.452611 33.591870 -34.543571
	729	1	-1.730390 31.007880 -39.211621
	730	1	-1.774238 33.591870 -37.344401
	731	1	-0.171418 31.007880 -36.410791
	732	1	-0.218491 33.591870 -34.543571
	733	1	1.503730 31.007880 -39.211621
	734	1	1.459882 33.591870 -37.344401
	735	1	3.062702 31.007880 -36.410791
	736	1	3.015629 33.591870 -34.543571
	737	1	4.737850 31.007880 -39.211621
	738	1	4.694002 33.591870 -37.344401
	739	1	6.296822 31.007880 -36.410791
	740	1	6.249749 33.591870 -34.543571
	741	1	7.971970 31.007880 -39.211621
	742	1	7.928122 33.591870 -37.344401
	743	1	9.530942 31.007880 -36.410791
	744	1	9.483869 33.591870 -34.543571
	745	1	-8.205426 36.175860 -39.211621
	746	1	-8.248891 38.759850 -37.344401
	747	1	-6.650133 36.175860 -36.410791
	748	1	-6.695878 38.759850 -34.543571
	749	1	-4.971306 36.175860 -39.211621
	750	1	-5.014771 38.759850 -37.344401
	751	1	-3.416013 36.175860 -36.410791
	752	1	-3.461758 38.759850 -34.543571
	753	1	-1.737186 36.175860 -39.211621
	754	1	-1.780651 38.759850 -37.344401
	755	1	-0.181893 36.175860 -36.410791
	756	1	-0.227638 38.759850 -34.543571
	757	1	1.496934 36.175860 -39.211621
	758	1	1.453469 38.759850 -37.344401
	759	1	3.052227 36.175860 -36.410791
	760	1	3.006482 38.759850 -34.543571
	761	1	4.731054 36.175860 -39.211621
	762	1	4.687589 38.759850 -37.344401
	763	1	6.286347 36.175860 -36.410791
	764	1	6.240602 38.759850 -34.543571
	765	1	7.965174 36.175860 -39.211621
	766	1	7.921709 38.759850 -37.344401
	767	1	9.520467 36.175860 -36.410791
	768	1	9.474722 38.759850 -34.543571
	769	1	-8.336215 -41.343840 -33.609961
	770	1	-8.379656 -38.759850 -31.742741
	771	1	-6.787383 -41.343840 -30.809131
	772	1	-6.832927 -38.759850 -28.941911
	773	1	-5.102095 -41.343840 -33.609961
	774	1	-5.145536 -38.759850 -31.742741
	775	1	-3.553263 -41.343840 -30.809131
	776	1	-3.598807 -38.759850 -28.941911
	777	1	-1.867975 -41.343840 -33.609961
	778	1	-1.911416 -38.759850 -31.742741
	779	1	-0.319143 -41.343840 -30.809131
	780	1	-0.364687 -38.759850 -28.941911
	781	1	1.366145 -41.343840 -33.609961
	782	1	1.322704 -38.759850 -31.742741
	783	1	2.914977 -41.343840 -30.809131
	784	1	2.869433 -38.759850 -28.941911
	785	1	4.600265 -41.343840 -33.609961
	786	1	4.556824 -38.759850 -31.742741
	787	1	6.149097 -41.343840 -30.809131
	788	1	6.103553 -38.759850 -28.941911
	789	1	7.834385 -41.343840 -33.609961