# LAMMPS data file written by OVITO
6144 atoms
1 atom types
-9.7023602 9.7023716 xlo xhi
-41.3437996 41.3437996 ylo yhi
-44.8151016 44.8151016 zlo zhi
0.0 1.22973 0.0 xy xz yz

Atoms

2880 1 -9.1326904 -2.59181 -0.929344
2 1 -8.0987902 -38.7596016 -42.9474984
4 1 -6.4984102 -38.7597008 -40.1473007
6 1 -4.8646698 -38.7596016 -42.9474984
8 1 -3.2642901 -38.7597008 -40.1473007
26 1 -8.0976296 -33.5912018 -42.9474984
27 1 -6.4803 -36.1753998 -42.0141983
28 1 -6.4956799 -33.591301 -40.1473007
30 1 -4.8635102 -33.5912018 -42.9474984
31 1 -3.2461801 -36.1753998 -42.0141983
32 1 -3.26156 -33.591301 -40.1473007
50 1 -8.0954905 -28.4225998 -42.9476014
51 1 -6.4787598 -31.0069008 -42.0143013
52 1 -6.4906502 -28.4228001 -40.1473999
54 1 -4.8613702 -28.4225998 -42.9476014
55 1 -3.2446401 -31.0069008 -42.0143013
56 1 -3.2565301 -28.4228001 -40.1473999
2864 1 -2.66445 -2.59181 -0.929344
2863 1 -2.77681 -5.1818399 -2.7909901
2862 1 -4.3804798 -2.59021 -3.7247501
74 1 -8.0927095 -23.2542 -42.9477006
75 1 -6.47648 -25.8383999 -42.0144005
76 1 -6.4841199 -23.2542 -40.1473999
2861 1 -4.4869099 -5.1772399 -5.58775
78 1 -4.8585902 -23.2542 -42.9477006
79 1 -3.2423601 -25.8383999 -42.0144005
80 1 -3.25 -23.2542 -40.1473999
2860 1 -5.8985702 -2.59181 -0.929344
2859 1 -6.0109301 -5.1818399 -2.7909901
2858 1 -7.6146002 -2.59021 -3.7247501
2857 1 -7.7210303 -5.1772399 -5.58775
98 1 -8.0897303 -18.0858994 -42.947899
99 1 -6.4738002 -20.6700001 -42.0144005
100 1 -6.47715 -18.0858994 -40.1472015
102 1 -4.85561 -18.0858994 -42.947899
103 1 -3.2396801 -20.6700001 -42.0144005
104 1 -3.2430301 -18.0858994 -40.1472015
122 1 -8.0869999 -12.9180002 -42.948002
123 1 -6.4711499 -15.5018997 -42.0143013
124 1 -6.4707899 -12.9180002 -40.1469994
126 1 -4.85288 -12.9180002 -42.948002
127 1 -3.23703 -15.5018997 -42.0143013
128 1 -3.23667 -12.9180002 -40.1469994
146 1 -8.08494 -7.7505999 -42.948002
147 1 -6.4689203 -10.3343001 -42.0141983
148 1 -6.4659901 -7.7505698 -40.146801
150 1 -4.8508202 -7.7505999 -42.948002
151 1 -3.2348001 -10.3343001 -42.0141983
152 1 -3.2318699 -7.7505698 -40.146801
2840 1 -2.67257 -7.7768202 -0.929157
2839 1 -2.8135901 -10.3647003 -2.7892001
2838 1 -4.40164 -7.7707 -3.7244401
170 1 -8.0838299 -2.5834899 -42.948101
171 1 -6.4674402 -5.1670098 -42.0139999
172 1 -6.4634099 -2.5834799 -40.1465988
2837 1 -4.5338502 -10.3514996 -5.5883003
174 1 -4.84971 -2.5834899 -42.948101
175 1 -3.23332 -5.1670098 -42.0139999
176 1 -3.22929 -2.5834799 -40.1465988
2836 1 -5.9066902 -7.7768202 -0.929157
2835 1 -6.0477099 -10.3647003 -2.7892001
2834 1 -7.6357599 -7.7707 -3.7244401
2833 1 -7.7679701 -10.3514996 -5.5883003
386 1 -8.1328898 -38.7597008 -37.3470993
388 1 -6.5344601 -38.7598 -34.5467987
2887 1 -2.7667301 -4.6928897e-13 -2.7915201
390 1 -4.89877 -38.7597008 -37.3470993
2885 1 -4.4732099 -4.6908798e-13 -5.5880199
392 1 -3.3003399 -38.7598 -34.5467987
2883 1 -6.0008502 -4.6933904e-13 -2.7915201
2881 1 -7.7073303 -4.6912799e-13 -5.5880199
409 1 -8.11341 -36.175499 -39.2140007
410 1 -8.1284304 -33.5914002 -37.3470993
411 1 -6.5130501 -36.1755982 -36.4137001
412 1 -6.52804 -33.5917015 -34.5469017
413 1 -4.8792902 -36.175499 -39.2140007
414 1 -4.89431 -33.5914002 -37.3470993
415 1 -3.27893 -36.1755982 -36.4137001
416 1 -3.2939201 -33.5917015 -34.5469017
433 1 -8.1096096 -31.0070992 -39.2140999
434 1 -8.1202402 -28.4228993 -37.3471985
435 1 -6.5067702 -31.0072994 -36.4138985
436 1 -6.5162401 -28.4230995 -34.5470009
437 1 -4.8754902 -31.0070992 -39.2140999
438 1 -4.8861198 -28.4228993 -37.3471985
439 1 -3.27265 -31.0072994 -36.4138985
440 1 -3.28212 -28.4230995 -34.5470009
457 1 -8.1039495 -25.8384991 -39.2141991
458 1 -8.1096401 -23.2542992 -37.3470001
459 1 -6.4974499 -25.8386994 -36.4140015
460 1 -6.501 -23.2544003 -34.5467987
461 1 -4.8698302 -25.8384991 -39.2141991
462 1 -4.8755202 -23.2542992 -37.3470001
463 1 -3.26333 -25.8386994 -36.4140015
464 1 -3.26688 -23.2544003 -34.5467987
481 1 -8.0973396 -20.6700993 -39.2140007
482 1 -8.0983295 -18.0858994 -37.3465996
483 1 -6.4865799 -20.6700993 -36.4136009
484 1 -6.4847698 -18.0858002 -34.5461006
485 1 -4.8632202 -20.6700993 -39.2140007
486 1 -4.8642102 -18.0858994 -37.3465996
487 1 -3.25246 -20.6700993 -36.4136009
488 1 -3.2506499 -18.0858002 -34.5461006
505 1 -8.0908098 -15.5018997 -39.213501
506 1 -8.0880499 -12.9179002 -37.3460999
507 1 -6.4758702 -15.5017996 -36.4127998
508 1 -6.4700799 -12.9176998 -34.5451012
509 1 -4.85669 -15.5018997 -39.213501
510 1 -4.85393 -12.9179002 -37.3460999
511 1 -3.24175 -15.5017996 -36.4127998
512 1 -3.23596 -12.9176998 -34.5451012
529 1 -8.08535 -10.3341999 -39.2130013
530 1 -8.0803003 -7.7504602 -37.345501
531 1 -6.4669299 -10.3340998 -36.4118996
532 1 -6.4590502 -7.7502699 -34.5442009
533 1 -4.8512302 -10.3341999 -39.2130013
534 1 -4.84618 -7.7504602 -37.345501
535 1 -3.23281 -10.3340998 -36.4118996
536 1 -3.2249301 -7.7502699 -34.5442009
553 1 -8.0817499 -5.1669698 -39.2126999
554 1 -8.0761499 -2.5834301 -37.3451996
555 1 -6.46104 -5.1668701 -36.4113007
556 1 -6.4531498 -2.58336 -34.5437012
557 1 -4.84763 -5.1669698 -39.2126999
558 1 -4.84203 -2.5834301 -37.3451996
559 1 -3.2269199 -5.1668701 -36.4113007
560 1 -3.2190299 -2.58336 -34.5437012
770 1 -8.1719704 -38.7599983 -31.7462998
772 1 -6.5778799 -38.7602005 -28.9458008
774 1 -4.93785 -38.7599983 -31.7462998
3153 1 -1.84512 -25.8003998 -0.0299387
776 1 -3.34376 -38.7602005 -28.9458008
3149 1 -5.0792398 -25.8003998 -0.0299387
3145 1 -8.3133602 -25.8003998 -0.0299387
2503 1 -2.9347302 -4.69027e-13 -8.3869105
2501 1 -4.6184101 -4.7607904e-13 -11.1880999
2499 1 -6.16885 -4.69063e-13 -8.3869105
2497 1 -7.85253 -4.7609196e-13 -11.1880999
793 1 -8.1478996 -36.1758995 -33.6133995
794 1 -8.1632099 -33.5919991 -31.7467003
795 1 -6.5502601 -36.1762009 -30.8129006
796 1 -6.5662599 -33.5924988 -28.9463998
797 1 -4.9137802 -36.1758995 -33.6133995
798 1 -4.92909 -33.5919991 -31.7467003
799 1 -3.3161399 -36.1762009 -30.8129006
800 1 -3.33214 -33.5924988 -28.9463998
817 1 -8.1388102 -31.0074997 -33.6138001
818 1 -8.14713 -28.4235001 -31.7469006
819 1 -6.5378299 -31.0079994 -30.8136006
820 1 -6.54496 -28.4239006 -28.9470006
821 1 -4.9046898 -31.0074997 -33.6138001
822 1 -4.9130102 -28.4235001 -31.7469006
823 1 -3.30371 -31.0079994 -30.8136006
824 1 -3.3108399 -28.4239006 -28.9470006
841 1 -8.12531 -25.8388005 -33.6138993
842 1 -8.1264 -23.2544994 -31.7467003
843 1 -6.5194102 -25.8391 -30.8139992
844 1 -6.51756 -23.2546005 -28.9468002
845 1 -4.8911902 -25.8388005 -33.6138993
846 1 -4.8922802 -23.2544994 -31.7467003
847 1 -3.28529 -25.8391 -30.8139992
848 1 -3.2834401 -23.2546005 -28.9468002
865 1 -8.1096096 -20.6700001 -33.6133003
866 1 -8.1044197 -18.0855999 -31.7457009
867 1 -6.4980302 -20.6699009 -30.8132992
868 1 -6.4886599 -18.0853004 -28.9454994
869 1 -4.8754902 -20.6700001 -33.6133003
870 1 -4.8702998 -18.0855999 -31.7457009
871 1 -3.2639101 -20.6699009 -30.8132992
872 1 -3.25454 -18.0853004 -28.9454994
889 1 -8.0942001 -15.5016003 -33.6122017
890 1 -8.0846205 -12.9174004 -31.7443009
891 1 -6.47715 -15.5011997 -30.8115998
892 1 -6.4628101 -12.9168998 -28.9433994
893 1 -4.8600798 -15.5016003 -33.6122017
894 1 -4.8505002 -12.9174004 -31.7443009
895 1 -3.2430301 -15.5011997 -30.8115998
896 1 -3.2286899 -12.9168998 -28.9433994
913 1 -8.0813799 -10.3338003 -33.6108017
914 1 -8.0698204 -7.74996 -31.7429009
915 1 -6.4598599 -10.3333998 -30.8097
916 1 -6.4436202 -7.7495499 -28.9414998
917 1 -4.84726 -10.3338003 -33.6108017
918 1 -4.8357001 -7.74996 -31.7429009
919 1 -3.22574 -10.3333998 -30.8097
920 1 -3.2095001 -7.7495499 -28.9414998
937 1 -8.0729504 -5.1666999 -33.6097985
938 1 -8.0619402 -2.5832401 -31.7420998
939 1 -6.4485502 -5.16645 -30.8082009
940 1 -6.4334603 -2.5830801 -28.9403
941 1 -4.83883 -5.1666999 -33.6097985
942 1 -4.8278198 -2.5832401 -31.7420998
943 1 -3.2144301 -5.16645 -30.8082009
944 1 -3.1993401 -2.5830801 -28.9403
1154 1 -8.2213297 -38.7605019 -26.1450005
1156 1 -6.6352501 -38.7610016 -23.3437996
1158 1 -4.9872098 -38.7605019 -26.1450005
1160 1 -3.40113 -38.7610016 -23.3437996
2119 1 -3.0562799 -4.7596898e-13 -13.9908
2117 1 -4.7176099 -4.75737e-13 -16.7940998
2115 1 -6.2904 -4.7594004e-13 -13.9908
1177 1 -8.1890097 -36.1767006 -28.0123005
1178 1 -8.2061501 -33.5932999 -26.1460991
1179 1 -6.5967303 -36.1772995 -25.2113991
1180 1 -6.61552 -33.5945015 -23.3456993
1181 1 -4.9548898 -36.1767006 -28.0123005
1182 1 -4.9720302 -33.5932999 -26.1460991
1183 1 -3.3626101 -36.1772995 -25.2113991
1184 1 -3.3814001 -33.5945015 -23.3456993
1201 1 -8.1725102 -31.0086002 -28.0135994
1202 1 -8.1783104 -28.4246998 -26.1473007
1203 1 -6.57514 -31.0095005 -25.2136994
1204 1 -6.5793801 -28.4256993 -23.3479996
1205 1 -4.9383898 -31.0086002 -28.0135994
1206 1 -4.94419 -28.4246998 -26.1473007
1207 1 -3.3410201 -31.0095005 -25.2136994
1208 1 -3.3452599 -28.4256993 -23.3479996
1225 1 -8.1480904 -25.8395004 -28.0144005
1226 1 -8.1426296 -23.2548008 -26.1473007
1227 1 -6.5432601 -25.8400002 -25.2152996
1228 1 -6.5332198 -23.2549992 -23.3484001
1229 1 -4.91397 -25.8395004 -28.0144005
1230 1 -4.9085102 -23.2548008 -26.1473007
1231 1 -3.30914 -25.8400002 -25.2152996
1232 1 -3.2990999 -23.2549992 -23.3484001
1249 1 -8.1198702 -20.6697998 -28.0135994
1250 1 -8.1052599 -18.0848999 -26.1455002
1251 1 -6.5065999 -20.6697006 -25.2143002
1252 1 -6.4853201 -18.0844002 -23.3458996
1253 1 -4.8857498 -20.6697998 -28.0135994
1254 1 -4.87114 -18.0848999 -26.1455002
1255 1 -3.27248 -20.6697006 -25.2143002
1256 1 -3.2512 -18.0844002 -23.3458996
1273 1 -8.0924597 -15.5008002 -28.0112
1274 1 -8.0721502 -12.9161998 -26.1425991
1275 1 -6.4712801 -15.5002003 -25.2108994
1276 1 -6.44345 -12.9154998 -23.3418999
1277 1 -4.8583398 -15.5008002 -28.0112
1278 1 -4.8380299 -12.9161998 -26.1425991
1279 1 -3.23716 -15.5002003 -25.2108994
1280 1 -3.2093301 -12.9154998 -23.3418999
1297 1 -8.0699396 -10.3329001 -28.0084
1298 1 -8.0478001 -7.7490301 -26.1399002
1299 1 -6.4425402 -10.3322001 -25.2070999
1300 1 -6.4130402 -7.7484498 -23.3381996
1301 1 -4.8358202 -10.3329001 -28.0084
1302 1 -4.8136802 -7.7490301 -26.1399002
1303 1 -3.20842 -10.3322001 -25.2070999
1304 1 -3.17892 -7.7484498 -23.3381996
1321 1 -8.0552797 -5.1661201 -28.0063
1322 1 -8.0349798 -2.5828901 -26.1382999
1323 1 -6.4239803 -5.16573 -25.2042999
1324 1 -6.3971901 -2.58268 -23.3360996
1325 1 -4.8211599 -5.1661201 -28.0063
1326 1 -4.80086 -2.5828901 -26.1382999
1327 1 -3.1898601 -5.16573 -25.2042999
1328 1 -3.16307 -2.58268 -23.3360996
1538 1 -8.2893801 -38.7616997 -20.5421009
1540 1 -6.7175002 -38.7625008 -17.7397003
1542 1 -5.0552602 -38.7616997 -20.5421009
1544 1 -3.4833801 -38.7625008 -17.7397003
1561 1 -8.2426901 -36.178299 -22.4101009
1562 1 -8.2638102 -33.5960007 -20.5452004
1563 1 -6.6600199 -36.179699 -19.6082993
1564 1 -6.68433 -33.5979996 -17.7446003
1565 1 -5.0085702 -36.178299 -22.4101009
1566 1 -5.0296898 -33.5960007 -20.5452004
1567 1 -3.4259 -36.179699 -19.6082993
1568 1 -3.4502101 -33.5979996 -17.7446003
1585 1 -8.2146502 -31.0107994 -22.4139004
1586 1 -8.2169504 -28.4270001 -20.5492001
1587 1 -6.6236501 -31.0125999 -19.6144009
1588 1 -6.6234699 -28.4288006 -17.7513008
1589 1 -4.9805298 -31.0107994 -22.4139004
1590 1 -4.98283 -28.4270001 -20.5492001
1591 1 -3.38953 -31.0125999 -19.6144009
1592 1 -3.3893499 -28.4288006 -17.7513008
1609 1 -8.1732998 -25.8407002 -22.4167996
1610 1 -8.1573401 -23.2553005 -20.5503006
1611 1 -6.5701199 -25.8416996 -19.6193009
1612 1 -6.54634 -23.2556 -17.7534008
1613 1 -4.93918 -25.8407002 -22.4167996
1614 1 -4.9232202 -23.2553005 -20.5503006
1615 1 -3.336 -25.8416996 -19.6193009
1616 1 -3.3122201 -23.2556 -17.7534008
1633 1 -8.12605 -20.6695004 -22.4155998
1634 1 -8.09622 -18.0837002 -20.5466995
1635 1 -6.5094199 -20.6690998 -19.6177006
1636 1 -6.4684501 -18.0828991 -17.7481003
1637 1 -4.8919302 -20.6695004 -22.4155998
1638 1 -4.8621002 -18.0837002 -20.5466995
1639 1 -3.2753 -20.6690998 -19.6177006
1640 1 -3.23433 -18.0828991 -17.7481003
1657 1 -8.0810604 -15.4994002 -22.4109001
1658 1 -8.0437403 -12.9146004 -20.5410996
1659 1 -6.4524899 -15.4986 -19.6110001
1660 1 -6.4032302 -12.9139004 -17.7404003
1661 1 -4.84694 -15.4994002 -22.4109001
1662 1 -4.8096199 -12.9146004 -20.5410996
1663 1 -3.21837 -15.4986 -19.6110001
1664 1 -3.1691101 -12.9139004 -17.7404003
1681 1 -8.0449104 -10.3315001 -22.4057007
1682 1 -8.0063105 -7.74791 -20.5361996
1683 1 -6.4075499 -10.3308001 -19.6039009
1684 1 -6.3578401 -7.7476502 -17.7339993
1685 1 -4.8107901 -10.3315001 -22.4057007
1686 1 -4.7721901 -7.74791 -20.5361996
1687 1 -3.17343 -10.3308001 -19.6039009
1688 1 -3.1237199 -7.7476502 -17.7339993
1705 1 -8.0218096 -5.1653299 -22.4018994
1706 1 -7.98704 -2.58251 -20.5333996
1707 1 -6.3792601 -5.16504 -19.5991001
1708 1 -6.3348999 -2.58248 -17.7304993
1709 1 -4.7876902 -5.1653299 -22.4018994
1710 1 -4.7529202 -2.58251 -20.5333996
1711 1 -3.1451399 -5.16504 -19.5991001
1712 1 -3.10078 -2.58248 -17.7304993
1922 1 -8.3905201 -38.7635002 -14.9362002
1924 1 -6.8438002 -38.7643013 -12.1315003
1926 1 -5.1564002 -38.7635002 -14.9362002
2816 1 -2.6973701 -12.9667998 -0.928681
1928 1 -3.60968 -38.7643013 -12.1315003
2815 1 -2.9076 -15.5425997 -2.78987
2814 1 -4.4593201 -12.9484998 -3.7267301
2813 1 -4.6339998 -15.5136004 -5.5998602
2812 1 -5.93149 -12.9667998 -0.928681
2811 1 -6.1417198 -15.5425997 -2.78987
2810 1 -7.69344 -12.9484998 -3.7267301
2809 1 -7.8681202 -15.5136004 -5.5998602
1945 1 -8.3187599 -36.1813011 -16.8057003
1946 1 -8.3474302 -33.600399 -14.9438
1947 1 -6.7530799 -36.1831017 -14.0019999
1948 1 -6.7878299 -33.6026993 -12.1428003
1949 1 -5.08464 -36.1813011 -16.8057003
1950 1 -5.1133099 -33.600399 -14.9438
1951 1 -3.51896 -36.1831017 -14.0019999
1952 1 -3.55371 -33.6026993 -12.1428003
1969 1 -8.2715197 -31.0149002 -16.8153
1970 1 -8.2680397 -28.4309006 -14.9546004
1971 1 -6.6915398 -31.0174007 -14.0165005
1972 1 -6.6835599 -28.4328995 -12.1597996
1973 1 -5.0373998 -31.0149002 -16.8153
1974 1 -5.0339198 -28.4309006 -14.9546004
1975 1 -3.4574201 -31.0174007 -14.0165005
1976 1 -3.44944 -28.4328995 -12.1597996
1993 1 -8.2020998 -25.8428002 -16.8230992
1994 1 -8.1677904 -23.2558003 -14.9582996
1995 1 -6.60109 -25.844101 -14.0286999
1996 1 -6.5523701 -23.2558003 -12.1659002
1997 1 -4.96798 -25.8428002 -16.8230992
1998 1 -4.93367 -23.2558003 -14.9582996
1999 1 -3.3669701 -25.844101 -14.0286999
2000 1 -3.31825 -23.2558003 -12.1659002
2017 1 -8.1240902 -20.6686993 -16.8209
2018 1 -8.06843 -18.0820007 -14.9499998
2019 1 -6.5005298 -20.6679993 -14.0254002
2020 1 -6.4250999 -18.0813007 -12.1525002
2021 1 -4.8899698 -20.6686993 -16.8209
2022 1 -4.8343101 -18.0820007 -14.9499998
2023 1 -3.2664101 -20.6679993 -14.0254002
2024 1 -3.19098 -18.0813007 -12.1525002
2041 1 -8.0523796 -15.4976998 -16.8111
2042 1 -7.98804 -12.9137002 -14.9393998
2043 1 -6.41049 -15.4972 -14.0109997
2044 1 -6.3270602 -12.9147998 -12.1379004
2045 1 -4.8182602 -15.4976998 -16.8111
2046 1 -4.7539201 -12.9137002 -14.9393998
2047 1 -3.1763699 -15.4972 -14.0109997
2048 1 -3.0929401 -12.9147998 -12.1379004
2065 1 -7.99715 -10.3304997 -16.8019009
2066 1 -7.9340702 -7.7481299 -14.9314004
2067 1 -6.3435102 -10.3311005 -13.9992
2068 1 -6.2646799 -7.7501402 -12.1285
2069 1 -4.7630301 -10.3304997 -16.8019009
2070 1 -4.6999502 -7.7481299 -14.9314004
2071 1 -3.10939 -10.3311005 -13.9992
2072 1 -3.03056 -7.7501402 -12.1285
2089 1 -7.96313 -5.1651001 -16.7959996
2090 1 -7.9074998 -2.58281 -14.9273996
2091 1 -6.3035402 -5.1659398 -13.9926996
2092 1 -6.2351499 -2.58376 -12.1246004
2093 1 -4.7290101 -5.1651001 -16.7959996
2094 1 -4.6733799 -2.58281 -14.9273996
2095 1 -3.0694201 -5.1659398 -13.9926996
2096 1 -3.00103 -2.58376 -12.1246004
2306 1 -8.5503903 -38.7638016 -9.3256197
2308 1 -7.0482402 -38.7597008 -6.5198202
2310 1 -5.3162699 -38.7638016 -9.3256197
2312 1 -3.8141201 -38.7597008 -6.5198202
2329 1 -8.4345598 -36.1842995 -11.1969996
2330 1 -8.4781103 -33.6030998 -9.3413096
2331 1 -6.8996802 -36.1825981 -8.3905296
2332 1 -6.9572402 -33.5974999 -6.53861
2333 1 -5.2004399 -36.1842995 -11.1969996
2334 1 -5.24399 -33.6030998 -9.3413096
2335 1 -3.66556 -36.1825981 -8.3905296
2336 1 -3.72312 -33.5974999 -6.53861
2353 1 -8.3539801 -31.0196991 -11.2180996
2354 1 -8.3397503 -28.4342003 -9.36796
2355 1 -6.79353 -31.0198994 -8.41961
2356 1 -6.7701702 -28.4325009 -6.5802598
2357 1 -5.1198602 -31.0196991 -11.2180996
2358 1 -5.1056299 -28.4342003 -9.36796
2359 1 -3.5594101 -31.0198994 -8.41961
2360 1 -3.5360501 -28.4325009 -6.5802598
2377 1 -8.2353802 -25.8451004 -11.2364998
2378 1 -8.1666002 -23.2555008 -9.3778
2379 1 -6.63658 -25.8454 -8.4461403
2380 1 -6.53967 -23.2553997 -6.5963302
2381 1 -5.0012598 -25.8451004 -11.2364998
2382 1 -4.93248 -23.2555008 -9.3778
2383 1 -3.4024601 -25.8454 -8.4461403
2384 1 -3.3055501 -23.2553997 -6.5963302
2401 1 -8.1050196 -20.6671009 -11.2312002
2402 1 -8.0021801 -18.0818005 -9.3549605
2403 1 -6.46626 -20.6667004 -8.4376898
2404 1 -6.3234301 -18.0862999 -6.5559502
2405 1 -4.8709002 -20.6671009 -11.2312002
2406 1 -4.7680602 -18.0818005 -9.3549605
2407 1 -3.2321401 -20.6667004 -8.4376898
2408 1 -3.0893099 -18.0862999 -6.5559502
2425 1 -7.9921298 -15.4979 -11.2098999
2426 1 -7.88449 -12.9188004 -9.3352804
2427 1 -6.3244901 -15.5017004 -8.4067602
2428 1 -6.1863298 -12.9291 -6.5310302
2429 1 -4.7580099 -15.4979 -11.2098999
2430 1 -4.6503701 -12.9188004 -9.3352804
2431 1 -3.0903699 -15.5017004 -8.4067602
2432 1 -2.95221 -12.9291 -6.5310302
2449 1 -7.9123502 -10.3338003 -11.1959
2450 1 -7.8156801 -7.7546802 -9.3256197
2451 1 -6.2322898 -10.3401003 -8.3917904
2452 1 -6.1168699 -7.7622299 -6.5236302
2453 1 -4.6782298 -10.3338003 -11.1959
2454 1 -4.5815602 -7.7546802 -9.3256197
2455 1 -2.99817 -10.3401003 -8.3917904
2456 1 -2.88275 -7.7622299 -6.5236302
2473 1 -7.8670302 -5.16816 -11.1896
2474 1 -7.7849798 -2.5855501 -9.3226004
2475 1 -6.1837702 -5.1721401 -8.3875504
2476 1 -6.0883598 -2.58791 -6.52244
2477 1 -4.6329098 -5.16816 -11.1896
2478 1 -4.55086 -2.5855501 -9.3226004
2479 1 -2.94965 -5.1721401 -8.3875504
2480 1 -2.85424 -2.58791 -6.52244
2690 1 -8.8126698 -38.7499008 -3.7179401
2692 1 -7.3796001 -38.7412987 -0.925256
2694 1 -5.5785499 -38.7499008 -3.7179401
2792 1 -2.8029399 -18.1592007 -0.941614
2696 1 -4.1454802 -38.7412987 -0.925256
2791 1 -3.1389201 -20.6900006 -2.84232
2698 1 -2.34443 -38.7499008 -3.7179401
2790 1 -4.60601 -18.1046009 -3.75281
2789 1 -4.81355 -20.6690007 -5.6433401
2788 1 -6.0370598 -18.1592007 -0.941614
2787 1 -6.3730402 -20.6900006 -2.84232
2786 1 -7.84013 -18.1046009 -3.75281
2785 1 -8.0476704 -20.6690007 -5.6433401
2713 1 -8.6238203 -36.1729012 -5.5833402
2714 1 -8.70788 -33.5763016 -3.7346399
2715 1 -7.1497798 -36.1511993 -2.7792201
2716 1 -7.30093 -33.5340996 -0.92996
2717 1 -5.3896999 -36.1729012 -5.5833402
2718 1 -5.4737602 -33.5763016 -3.7346399
2719 1 -3.91566 -36.1511993 -2.7792201
2720 1 -4.0668101 -33.5340996 -0.92996
2721 1 -2.1555801 -36.1729012 -5.5833402
2722 1 -2.23964 -33.5763016 -3.7346399
2737 1 -8.4830799 -31.0135994 -5.6192899
2738 1 -8.4449902 -28.4188004 -3.7999201
2739 1 -6.9613 -30.9813996 -2.81266
2740 1 -6.90938 -28.3624001 -1.0189101
2741 1 -5.24896 -31.0135994 -5.6192899
2742 1 -5.2108698 -28.4188004 -3.7999201
2743 1 -3.72718 -30.9813996 -2.81266
2744 1 -3.6752601 -28.3624001 -1.0189101
2746 1 -1.97675 -28.4188004 -3.7999201
2761 1 -8.2726698 -25.844101 -5.6555801
2762 1 -8.1363297 -23.2600994 -3.8278699
2763 1 -6.67518 -25.8376007 -2.85306
2764 1 -6.4731398 -23.2849007 -1.06338
2765 1 -5.0385499 -25.844101 -5.6555801
2766 1 -4.9022102 -23.2600994 -3.8278699
2767 1 -3.4410601 -25.8376007 -2.85306
2768 1 -3.2390201 -23.2849007 -1.06338
195 1 -6.4669299 -4.7642298e-13 -42.0139999
199 1 -3.23281 -4.7651601e-13 -42.0139999
577 1 -8.0804901 -4.7655802e-13 -39.2125015
579 1 -6.4589901 -4.7600799e-13 -36.4109993
581 1 -4.8463702 -4.7659602e-13 -39.2125015
583 1 -3.22487 -4.7603703e-13 -36.4109993
961 1 -8.0700197 -4.6872201e-13 -33.6094017
963 1 -6.4446202 -4.6919499e-13 -30.8076
965 1 -4.8358999 -4.7567601e-13 -33.6094017
967 1 -3.2105 -4.7620101e-13 -30.8076
1345 1 -8.0502005 -4.76191e-13 -28.0056
1347 1 -6.4175801 -4.6924801e-13 -25.2031994
1349 1 -4.8160801 -4.763e-13 -28.0056
1351 1 -3.18346 -4.8317299e-13 -25.2031994
2113 1 -7.9517298 -4.75734e-13 -16.7940998
1729 1 -8.0138903 -4.6219402e-13 -22.4004994
1731 1 -6.3696599 -4.6886502e-13 -19.5974007
1733 1 -4.7797699 -4.6914702e-13 -22.4004994
1735 1 -3.13554 -4.6885801e-13 -19.5974007
3173 1 -7.87147 -20.7703991 -0.0469308
3177 1 -4.6373501 -20.7703991 -0.0469308
2903 1 10.1697998 -4.55303e-13 -2.7915201
2879 1 10.1597004 -5.1818399 -2.7909901
2901 1 8.4632702 -4.69099e-13 -5.5880199
2878 1 8.5559998 -2.59021 -3.7247501
10 1 -1.6305501 -38.7596016 -42.9474984
2899 1 6.9356298 -4.6205497e-13 -2.7915201
12 1 -0.0301745 -38.7597008 -40.1473007
2877 1 8.4495697 -5.1772399 -5.58775
14 1 1.60357 -38.7596016 -42.9474984
2897 1 5.2291498 -4.68994e-13 -5.5880199
16 1 3.2039499 -38.7597008 -40.1473007
2876 1 7.03791 -2.59181 -0.929344
18 1 4.8376899 -38.7596016 -42.9474984
2895 1 3.70151 -4.6206799e-13 -2.7915201
20 1 6.4380698 -38.7597008 -40.1473007
2875 1 6.92555 -5.1818399 -2.7909901
22 1 8.0718098 -38.7596016 -42.9474984
2893 1 1.99503 -4.6900001e-13 -5.5880199
24 1 9.6721897 -38.7597008 -40.1473007
2874 1 5.3218799 -2.59021 -3.7247501
2873 1 5.2154498 -5.1772399 -5.58775
2872 1 3.8037901 -2.59181 -0.929344
34 1 -1.62939 -33.5912018 -42.9474984
35 1 -0.0120574 -36.1753998 -42.0141983
36 1 -0.0274384 -33.591301 -40.1473007
2871 1 3.6914301 -5.1818399 -2.7909901
38 1 1.60473 -33.5912018 -42.9474984
39 1 3.22206 -36.1753998 -42.0141983
40 1 3.2066801 -33.591301 -40.1473007
2870 1 2.08776 -2.59021 -3.7247501
42 1 4.83885 -33.5912018 -42.9474984
43 1 6.4561801 -36.1753998 -42.0141983
44 1 6.4408002 -33.591301 -40.1473007
2869 1 1.98133 -5.1772399 -5.58775
46 1 8.0729704 -33.5912018 -42.9474984
47 1 9.6903 -36.1753998 -42.0141983
48 1 9.6749201 -33.591301 -40.1473007
2868 1 0.569665 -2.59181 -0.929344
2867 1 0.45731 -5.1818399 -2.7909901
2866 1 -1.14636 -2.59021 -3.7247501
58 1 -1.62725 -28.4225998 -42.9476014
59 1 -0.0105235 -31.0069008 -42.0143013
60 1 -0.0224058 -28.4228001 -40.1473999
2865 1 -1.25279 -5.1772399 -5.58775
62 1 1.6068701 -28.4225998 -42.9476014
63 1 3.2235999 -31.0069008 -42.0143013
64 1 3.21171 -28.4228001 -40.1473999
66 1 4.8409902 -28.4225998 -42.9476014
67 1 6.4577198 -31.0069008 -42.0143013
68 1 6.4458299 -28.4228001 -40.1473999
70 1 8.0751104 -28.4225998 -42.9476014
71 1 9.6918402 -31.0069008 -42.0143013
72 1 9.6799498 -28.4228001 -40.1473999
82 1 -1.62447 -23.2542 -42.9477006
83 1 -0.008238 -25.8383999 -42.0144005
84 1 -0.0158843 -23.2542 -40.1473999
86 1 1.60965 -23.2542 -42.9477006
87 1 3.2258799 -25.8383999 -42.0144005
88 1 3.21824 -23.2542 -40.1473999
90 1 4.84377 -23.2542 -42.9477006
91 1 6.4600001 -25.8383999 -42.0144005
92 1 6.4523602 -23.2542 -40.1473999
94 1 8.0778904 -23.2542 -42.9477006
95 1 9.6941204 -25.8383999 -42.0144005
96 1 9.6864796 -23.2542 -40.1473999
2856 1 10.2638998 -7.7768202 -0.929157
2855 1 10.1229 -10.3647003 -2.7892001
2854 1 8.5348397 -7.7707 -3.7244401
106 1 -1.62149 -18.0858994 -42.947899
107 1 -0.0055607 -20.6700001 -42.0144005
108 1 -0.008908 -18.0858994 -40.1472015
2853 1 8.4026299 -10.3514996 -5.5883003
110 1 1.61263 -18.0858994 -42.947899
111 1 3.22856 -20.6700001 -42.0144005
112 1 3.22521 -18.0858994 -40.1472015
2852 1 7.0297899 -7.7768202 -0.929157
114 1 4.8467498 -18.0858994 -42.947899
115 1 6.4626799 -20.6700001 -42.0144005
116 1 6.4593301 -18.0858994 -40.1472015
2851 1 6.8887702 -10.3647003 -2.7892001
118 1 8.0808697 -18.0858994 -42.947899
119 1 9.6968003 -20.6700001 -42.0144005
120 1 9.69345 -18.0858994 -40.1472015
2850 1 5.3007202 -7.7707 -3.7244401
2849 1 5.16851 -10.3514996 -5.5883003
2848 1 3.7956701 -7.7768202 -0.929157
130 1 -1.61876 -12.9180002 -42.948002
131 1 -0.0029075 -15.5018997 -42.0143013
132 1 -0.0025502 -12.9180002 -40.1469994
2847 1 3.65465 -10.3647003 -2.7892001
134 1 1.61536 -12.9180002 -42.948002
135 1 3.23121 -15.5018997 -42.0143013
136 1 3.23157 -12.9180002 -40.1469994
2846 1 2.0666001 -7.7707 -3.7244401
138 1 4.8494802 -12.9180002 -42.948002
139 1 6.4653301 -15.5018997 -42.0143013
140 1 6.4656902 -12.9180002 -40.1469994
2845 1 1.93439 -10.3514996 -5.5883003
142 1 8.0836 -12.9180002 -42.948002
143 1 9.6994496 -15.5018997 -42.0143013
144 1 9.6998101 -12.9180002 -40.1469994
2844 1 0.5615551 -7.7768202 -0.929157
2843 1 0.42053 -10.3647003 -2.7892001
2842 1 -1.1675201 -7.7707 -3.7244401
154 1 -1.6167001 -7.7505999 -42.948002
155 1 -6.7966199e-04 -10.3343001 -42.0141983
156 1 0.0022538 -7.7505698 -40.146801
2841 1 -1.29973 -10.3514996 -5.5883003
158 1 1.61742 -7.7505999 -42.948002
159 1 3.2334399 -10.3343001 -42.0141983
160 1 3.2363701 -7.7505698 -40.146801
162 1 4.8515402 -7.7505999 -42.948002
163 1 6.4675598 -10.3343001 -42.0141983
164 1 6.47049 -7.7505698 -40.146801
166 1 8.08566 -7.7505999 -42.948002
167 1 9.7016802 -10.3343001 -42.0141983
168 1 9.7046099 -7.7505698 -40.146801
178 1 -1.61559 -2.5834899 -42.948101
179 1 7.9710002e-04 -5.1670098 -42.0139999
180 1 0.0048301 -2.5834799 -40.1465988
182 1 1.6185301 -2.5834899 -42.948101
183 1 3.23492 -5.1670098 -42.0139999
184 1 3.23895 -2.5834799 -40.1465988
186 1 4.8526502 -2.5834899 -42.948101
187 1 6.4690399 -5.1670098 -42.0139999
188 1 6.4730702 -2.5834799 -40.1465988
190 1 8.0867701 -2.5834899 -42.948101
191 1 9.7031603 -5.1670098 -42.0139999
192 1 9.7071896 -2.5834799 -40.1465988
2891 1 0.46739 -4.6915899e-13 -2.7915201
2889 1 -1.23909 -4.6899801e-13 -5.5880199
394 1 -1.66465 -38.7597008 -37.3470993
396 1 -0.0662222 -38.7598 -34.5467987
2519 1 10.0017004 -4.76015e-13 -8.3869105
398 1 1.5694701 -38.7597008 -37.3470993
2517 1 8.3180704 -4.6910596e-13 -11.1880999
400 1 3.1679001 -38.7598 -34.5467987
2515 1 6.7676301 -4.7599902e-13 -8.3869105
402 1 4.8035898 -38.7597008 -37.3470993
2513 1 5.08395 -4.7607098e-13 -11.1880999
404 1 6.40202 -38.7598 -34.5467987
2511 1 3.53351 -4.69031e-13 -8.3869105
406 1 8.0377102 -38.7597008 -37.3470993
2509 1 1.84983 -4.6917296e-13 -11.1880999
408 1 9.6361399 -38.7598 -34.5467987
417 1 -1.64517 -36.175499 -39.2140007
418 1 -1.66019 -33.5914002 -37.3470993
419 1 -0.044808 -36.1755982 -36.4137001
420 1 -0.0597997 -33.5917015 -34.5469017
421 1 1.5889501 -36.175499 -39.2140007
422 1 1.5739301 -33.5914002 -37.3470993
423 1 3.1893101 -36.1755982 -36.4137001
424 1 3.17432 -33.5917015 -34.5469017
425 1 4.8230701 -36.175499 -39.2140007
426 1 4.8080502 -33.5914002 -37.3470993
427 1 6.42343 -36.1755982 -36.4137001
428 1 6.4084401 -33.5917015 -34.5469017
429 1 8.0571899 -36.175499 -39.2140007
430 1 8.0421696 -33.5914002 -37.3470993
431 1 9.6575499 -36.1755982 -36.4137001
432 1 9.64256 -33.5917015 -34.5469017
441 1 -1.6413701 -31.0070992 -39.2140999
442 1 -1.652 -28.4228993 -37.3471985
443 1 -0.0385333 -31.0072994 -36.4138985
444 1 -0.048002 -28.4230995 -34.5470009
445 1 1.59275 -31.0070992 -39.2140999
446 1 1.58212 -28.4228993 -37.3471985
447 1 3.19559 -31.0072994 -36.4138985
448 1 3.18612 -28.4230995 -34.5470009
449 1 4.82687 -31.0070992 -39.2140999
450 1 4.8162399 -28.4228993 -37.3471985
451 1 6.4297099 -31.0072994 -36.4138985
452 1 6.42024 -28.4230995 -34.5470009
453 1 8.0609903 -31.0070992 -39.2140999
454 1 8.0503597 -28.4228993 -37.3471985
455 1 9.6638298 -31.0072994 -36.4138985
456 1 9.6543598 -28.4230995 -34.5470009
465 1 -1.63571 -25.8384991 -39.2141991
466 1 -1.6414 -23.2542992 -37.3470001
467 1 -0.0292097 -25.8386994 -36.4140015
468 1 -0.0327589 -23.2544003 -34.5467987
469 1 1.59841 -25.8384991 -39.2141991
470 1 1.5927201 -23.2542992 -37.3470001
471 1 3.20491 -25.8386994 -36.4140015
472 1 3.20136 -23.2544003 -34.5467987
473 1 4.83253 -25.8384991 -39.2141991
474 1 4.8268399 -23.2542992 -37.3470001
475 1 6.4390302 -25.8386994 -36.4140015
476 1 6.4354801 -23.2544003 -34.5467987
477 1 8.0666504 -25.8384991 -39.2141991
478 1 8.0609598 -23.2542992 -37.3470001
479 1 9.6731501 -25.8386994 -36.4140015
480 1 9.6695996 -23.2544003 -34.5467987
489 1 -1.6291 -20.6700993 -39.2140007
490 1 -1.63009 -18.0858994 -37.3465996
491 1 -0.0183383 -20.6700993 -36.4136009
492 1 -0.0165341 -18.0858002 -34.5461006
493 1 1.6050201 -20.6700993 -39.2140007
494 1 1.60403 -18.0858994 -37.3465996
495 1 3.21578 -20.6700993 -36.4136009
496 1 3.2175901 -18.0858002 -34.5461006
497 1 4.83914 -20.6700993 -39.2140007
498 1 4.83815 -18.0858994 -37.3465996
499 1 6.4499002 -20.6700993 -36.4136009
500 1 6.4517102 -18.0858002 -34.5461006
501 1 8.0732603 -20.6700993 -39.2140007
502 1 8.0722704 -18.0858994 -37.3465996
503 1 9.6840201 -20.6700993 -36.4136009
504 1 9.6858301 -18.0858002 -34.5461006
513 1 -1.6225701 -15.5018997 -39.213501
514 1 -1.61981 -12.9179002 -37.3460999
515 1 -0.0076298 -15.5017996 -36.4127998
516 1 -0.0018411 -12.9176998 -34.5451012
517 1 1.61155 -15.5018997 -39.213501
518 1 1.6143101 -12.9179002 -37.3460999
519 1 3.22649 -15.5017996 -36.4127998
520 1 3.23228 -12.9176998 -34.5451012
521 1 4.8456702 -15.5018997 -39.213501
522 1 4.8484302 -12.9179002 -37.3460999
523 1 6.4606099 -15.5017996 -36.4127998
524 1 6.4664002 -12.9176998 -34.5451012
525 1 8.0797901 -15.5018997 -39.213501
526 1 8.0825501 -12.9179002 -37.3460999
527 1 9.6947298 -15.5017996 -36.4127998
528 1 9.7005196 -12.9176998 -34.5451012
537 1 -1.61711 -10.3341999 -39.2130013
538 1 -1.61206 -7.7504602 -37.345501
539 1 0.0013054 -10.3340998 -36.4118996
540 1 0.0091945 -7.7502699 -34.5442009
541 1 1.61701 -10.3341999 -39.2130013
542 1 1.62206 -7.7504602 -37.345501
543 1 3.23543 -10.3340998 -36.4118996
544 1 3.24331 -7.7502699 -34.5442009
545 1 4.85113 -10.3341999 -39.2130013
546 1 4.8561802 -7.7504602 -37.345501
547 1 6.4695502 -10.3340998 -36.4118996
548 1 6.4774299 -7.7502699 -34.5442009
549 1 8.0852499 -10.3341999 -39.2130013
550 1 8.0902996 -7.7504602 -37.345501
551 1 9.7036696 -10.3340998 -36.4118996
552 1 9.7115498 -7.7502699 -34.5442009
561 1 -1.61351 -5.1669698 -39.2126999
562 1 -1.6079101 -2.5834301 -37.3451996
563 1 0.0071977 -5.1668701 -36.4113007
564 1 0.0150877 -2.58336 -34.5437012