#ver. 09 HCP-Zr [11-20],[0001],[-1100] + dislocation and loop, metal units, 10K
    6144 atoms
    1 atom types

-9.702360 9.702360 xlo xhi
-41.343840 41.343840 ylo yhi
-44.813281 44.813281 zlo zhi
0.0 0.0 0.0 xy xz yz
Masses

    1 91.224

Atoms

	1	1	-9.702360 -41.343840 -44.813281
	2	1	-9.702360 -38.759850 -42.946061
	3	1	-8.085300 -41.343840 -42.012451
	4	1	-8.085300 -38.759850 -40.145231
	5	1	-6.468240 -41.343840 -44.813281
	6	1	-6.468240 -38.759850 -42.946061
	7	1	-4.851180 -41.343840 -42.012451
	8	1	-4.851180 -38.759850 -40.145231
	9	1	-3.234120 -41.343840 -44.813281
	10	1	-3.234120 -38.759850 -42.946061
	11	1	-1.617060 -41.343840 -42.012451
	12	1	-1.617060 -38.759850 -40.145231
	13	1	0.000000 -41.343840 -44.813281
	14	1	0.000000 -38.759850 -42.946061
	15	1	1.617060 -41.343840 -42.012451
	16	1	1.617060 -38.759850 -40.145231
	17	1	3.234120 -41.343840 -44.813281
	18	1	3.234120 -38.759850 -42.946061
	19	1	4.851180 -41.343840 -42.012451
	20	1	4.851180 -38.759850 -40.145231
	21	1	6.468240 -41.343840 -44.813281
	22	1	6.468240 -38.759850 -42.946061
	23	1	8.085300 -41.343840 -42.012451
	24	1	8.085300 -38.759850 -40.145231
	25	1	-9.702360 -36.175860 -44.813281
	26	1	-9.702360 -33.591870 -42.946061
	27	1	-8.085300 -36.175860 -42.012451
	28	1	-8.085300 -33.591870 -40.145231
	29	1	-6.468240 -36.175860 -44.813281
	30	1	-6.468240 -33.591870 -42.946061
	31	1	-4.851180 -36.175860 -42.012451
	32	1	-4.851180 -33.591870 -40.145231
	33	1	-3.234120 -36.175860 -44.813281
	34	1	-3.234120 -33.591870 -42.946061
	35	1	-1.617060 -36.175860 -42.012451
	36	1	-1.617060 -33.591870 -40.145231
	37	1	0.000000 -36.175860 -44.813281
	38	1	0.000000 -33.591870 -42.946061
	39	1	1.617060 -36.175860 -42.012451
	40	1	1.617060 -33.591870 -40.145231
	41	1	3.234120 -36.175860 -44.813281
	42	1	3.234120 -33.591870 -42.946061
	43	1	4.851180 -36.175860 -42.012451
	44	1	4.851180 -33.591870 -40.145231
	45	1	6.468240 -36.175860 -44.813281
	46	1	6.468240 -33.591870 -42.946061
	47	1	8.085300 -36.175860 -42.012451
	48	1	8.085300 -33.591870 -40.145231
	49	1	-9.702360 -31.007880 -44.813281
	50	1	-9.702360 -28.423890 -42.946061
	51	1	-8.085300 -31.007880 -42.012451
	52	1	-8.085300 -28.423890 -40.145231
	53	1	-6.468240 -31.007880 -44.813281
	54	1	-6.468240 -28.423890 -42.946061
	55	1	-4.851180 -31.007880 -42.012451
	56	1	-4.851180 -28.423890 -40.145231
	57	1	-3.234120 -31.007880 -44.813281
	58	1	-3.234120 -28.423890 -42.946061
	59	1	-1.617060 -31.007880 -42.012451
	60	1	-1.617060 -28.423890 -40.145231
	61	1	0.000000 -31.007880 -44.813281
	62	1	0.000000 -28.423890 -42.946061
	63	1	1.617060 -31.007880 -42.012451
	64	1	1.617060 -28.423890 -40.145231
	65	1	3.234120 -31.007880 -44.813281
	66	1	3.234120 -28.423890 -42.946061
	67	1	4.851180 -31.007880 -42.012451
	68	1	4.851180 -28.423890 -40.145231
	69	1	6.468240 -31.007880 -44.813281
	70	1	6.468240 -28.423890 -42.946061
	71	1	8.085300 -31.007880 -42.012451
	72	1	8.085300 -28.423890 -40.145231
	73	1	-9.702360 -25.839900 -44.813281
	74	1	-9.702360 -23.255910 -42.946061
	75	1	-8.085300 -25.839900 -42.012451
	76	1	-8.085300 -23.255910 -40.145231
	77	1	-6.468240 -25.839900 -44.813281
	78	1	-6.468240 -23.255910 -42.946061
	79	1	-4.851180 -25.839900 -42.012451
	80	1	-4.851180 -23.255910 -40.145231
	81	1	-3.234120 -25.839900 -44.813281
	82	1	-3.234120 -23.255910 -42.946061
	83	1	-1.617060 -25.839900 -42.012451
	84	1	-1.617060 -23.255910 -40.145231
	85	1	0.000000 -25.839900 -44.813281
	86	1	0.000000 -23.255910 -42.946061
	87	1	1.617060 -25.839900 -42.012451
	88	1	1.617060 -23.255910 -40.145231
	89	1	3.234120 -25.839900 -44.813281
	90	1	3.234120 -23.255910 -42.946061
	91	1	4.851180 -25.839900 -42.012451
	92	1	4.851180 -23.255910 -40.145231
	93	1	6.468240 -25.839900 -44.813281
	94	1	6.468240 -23.255910 -42.946061
	95	1	8.085300 -25.839900 -42.012451
	96	1	8.085300 -23.255910 -40.145231
	97	1	-9.702360 -20.671920 -44.813281
	98	1	-9.702360 -18.087930 -42.946061
	99	1	-8.085300 -20.671920 -42.012451
	100	1	-8.085300 -18.087930 -40.145231
	101	1	-6.468240 -20.671920 -44.813281
	102	1	-6.468240 -18.087930 -42.946061
	103	1	-4.851180 -20.671920 -42.012451
	104	1	-4.851180 -18.087930 -40.145231
	105	1	-3.234120 -20.671920 -44.813281
	106	1	-3.234120 -18.087930 -42.946061
	107	1	-1.617060 -20.671920 -42.012451
	108	1	-1.617060 -18.087930 -40.145231
	109	1	0.000000 -20.671920 -44.813281
	110	1	0.000000 -18.087930 -42.946061
	111	1	1.617060 -20.671920 -42.012451
	112	1	1.617060 -18.087930 -40.145231
	113	1	3.234120 -20.671920 -44.813281
	114	1	3.234120 -18.087930 -42.946061
	115	1	4.851180 -20.671920 -42.012451
	116	1	4.851180 -18.087930 -40.145231
	117	1	6.468240 -20.671920 -44.813281
	118	1	6.468240 -18.087930 -42.946061
	119	1	8.085300 -20.671920 -42.012451
	120	1	8.085300 -18.087930 -40.145231
	121	1	-9.702360 -15.503940 -44.813281
	122	1	-9.702360 -12.919950 -42.946061
	123	1	-8.085300 -15.503940 -42.012451
	124	1	-8.085300 -12.919950 -40.145231
	125	1	-6.468240 -15.503940 -44.813281
	126	1	-6.468240 -12.919950 -42.946061
	127	1	-4.851180 -15.503940 -42.012451
	128	1	-4.851180 -12.919950 -40.145231
	129	1	-3.234120 -15.503940 -44.813281
	130	1	-3.234120 -12.919950 -42.946061
	131	1	-1.617060 -15.503940 -42.012451
	132	1	-1.617060 -12.919950 -40.145231
	133	1	0.000000 -15.503940 -44.813281
	134	1	0.000000 -12.919950 -42.946061
	135	1	1.617060 -15.503940 -42.012451
	136	1	1.617060 -12.919950 -40.145231
	137	1	3.234120 -15.503940 -44.813281
	138	1	3.234120 -12.919950 -42.946061
	139	1	4.851180 -15.503940 -42.012451
	140	1	4.851180 -12.919950 -40.145231
	141	1	6.468240 -15.503940 -44.813281
	142	1	6.468240 -12.919950 -42.946061
	143	1	8.085300 -15.503940 -42.012451
	144	1	8.085300 -12.919950 -40.145231
	145	1	-9.702360 -10.335960 -44.813281
	146	1	-9.702360 -7.751970 -42.946061
	147	1	-8.085300 -10.335960 -42.012451
	148	1	-8.085300 -7.751970 -40.145231
	149	1	-6.468240 -10.335960 -44.813281
	150	1	-6.468240 -7.751970 -42.946061
	151	1	-4.851180 -10.335960 -42.012451
	152	1	-4.851180 -7.751970 -40.145231
	153	1	-3.234120 -10.335960 -44.813281
	154	1	-3.234120 -7.751970 -42.946061
	155	1	-1.617060 -10.335960 -42.012451
	156	1	-1.617060 -7.751970 -40.145231
	157	1	0.000000 -10.335960 -44.813281
	158	1	0.000000 -7.751970 -42.946061
	159	1	1.617060 -10.335960 -42.012451
	160	1	1.617060 -7.751970 -40.145231
	161	1	3.234120 -10.335960 -44.813281
	162	1	3.234120 -7.751970 -42.946061
	163	1	4.851180 -10.335960 -42.012451
	164	1	4.851180 -7.751970 -40.145231
	165	1	6.468240 -10.335960 -44.813281
	166	1	6.468240 -7.751970 -42.946061
	167	1	8.085300 -10.335960 -42.012451
	168	1	8.085300 -7.751970 -40.145231
	169	1	-9.702360 -5.167980 -44.813281
	170	1	-9.702360 -2.583990 -42.946061
	171	1	-8.085300 -5.167980 -42.012451
	172	1	-8.085300 -2.583990 -40.145231
	173	1	-6.468240 -5.167980 -44.813281
	174	1	-6.468240 -2.583990 -42.946061
	175	1	-4.851180 -5.167980 -42.012451
	176	1	-4.851180 -2.583990 -40.145231
	177	1	-3.234120 -5.167980 -44.813281
	178	1	-3.234120 -2.583990 -42.946061
	179	1	-1.617060 -5.167980 -42.012451
	180	1	-1.617060 -2.583990 -40.145231
	181	1	0.000000 -5.167980 -44.813281
	182	1	0.000000 -2.583990 -42.946061
	183	1	1.617060 -5.167980 -42.012451
	184	1	1.617060 -2.583990 -40.145231
	185	1	3.234120 -5.167980 -44.813281
	186	1	3.234120 -2.583990 -42.946061
	187	1	4.851180 -5.167980 -42.012451
	188	1	4.851180 -2.583990 -40.145231
	189	1	6.468240 -5.167980 -44.813281
	190	1	6.468240 -2.583990 -42.946061
	191	1	8.085300 -5.167980 -42.012451
	192	1	8.085300 -2.583990 -40.145231
	193	1	-9.702360 0.000000 -44.813281
	194	1	-9.702360 2.583990 -42.946061
	195	1	-8.085300 0.000000 -42.012451
	196	1	-8.085300 2.583990 -40.145231
	197	1	-6.468240 0.000000 -44.813281
	198	1	-6.468240 2.583990 -42.946061
	199	1	-4.851180 0.000000 -42.012451
	200	1	-4.851180 2.583990 -40.145231
	201	1	-3.234120 0.000000 -44.813281
	202	1	-3.234120 2.583990 -42.946061
	203	1	-1.617060 0.000000 -42.012451
	204	1	-1.617060 2.583990 -40.145231
	205	1	0.000000 0.000000 -44.813281
	206	1	0.000000 2.583990 -42.946061
	207	1	1.617060 0.000000 -42.012451
	208	1	1.617060 2.583990 -40.145231
	209	1	3.234120 0.000000 -44.813281
	210	1	3.234120 2.583990 -42.946061
	211	1	4.851180 0.000000 -42.012451
	212	1	4.851180 2.583990 -40.145231
	213	1	6.468240 0.000000 -44.813281
	214	1	6.468240 2.583990 -42.946061
	215	1	8.085300 0.000000 -42.012451
	216	1	8.085300 2.583990 -40.145231
	217	1	-9.702360 5.167980 -44.813281
	218	1	-9.702360 7.751970 -42.946061
	219	1	-8.085300 5.167980 -42.012451
	220	1	-8.085300 7.751970 -40.145231
	221	1	-6.468240 5.167980 -44.813281
	222	1	-6.468240 7.751970 -42.946061
	223	1	-4.851180 5.167980 -42.012451
	224	1	-4.851180 7.751970 -40.145231
	225	1	-3.234120 5.167980 -44.813281
	226	1	-3.234120 7.751970 -42.946061
	227	1	-1.617060 5.167980 -42.012451
	228	1	-1.617060 7.751970 -40.145231
	229	1	0.000000 5.167980 -44.813281
	230	1	0.000000 7.751970 -42.946061
	231	1	1.617060 5.167980 -42.012451
	232	1	1.617060 7.751970 -40.145231
	233	1	3.234120 5.167980 -44.813281
	234	1	3.234120 7.751970 -42.946061
	235	1	4.851180 5.167980 -42.012451
	236	1	4.851180 7.751970 -40.145231
	237	1	6.468240 5.167980 -44.813281
	238	1	6.468240 7.751970 -42.946061
	239	1	8.085300 5.167980 -42.012451
	240	1	8.085300 7.751970 -40.145231
	241	1	-9.702360 10.335960 -44.813281
	242	1	-9.702360 12.919950 -42.946061
	243	1	-8.085300 10.335960 -42.012451
	244	1	-8.085300 12.919950 -40.145231
	245	1	-6.468240 10.335960 -44.813281
	246	1	-6.468240 12.919950 -42.946061
	247	1	-4.851180 10.335960 -42.012451
	248	1	-4.851180 12.919950 -40.145231
	249	1	-3.234120 10.335960 -44.813281
	250	1	-3.234120 12.919950 -42.946061
	251	1	-1.617060 10.335960 -42.012451
	252	1	-1.617060 12.919950 -40.145231
	253	1	0.000000 10.335960 -44.813281
	254	1	0.000000 12.919950 -42.946061
	255	1	1.617060 10.335960 -42.012451
	256	1	1.617060 12.919950 -40.145231
	257	1	3.234120 10.335960 -44.813281
	258	1	3.234120 12.919950 -42.946061
	259	1	4.851180 10.335960 -42.012451
	260	1	4.851180 12.919950 -40.145231
	261	1	6.468240 10.335960 -44.813281
	262	1	6.468240 12.919950 -42.946061
	263	1	8.085300 10.335960 -42.012451
	264	1	8.085300 12.919950 -40.145231
	265	1	-9.702360 15.503940 -44.813281
	266	1	-9.702360 18.087930 -42.946061
	267	1	-8.085300 15.503940 -42.012451
	268	1	-8.085300 18.087930 -40.145231
	269	1	-6.468240 15.503940 -44.813281
	270	1	-6.468240 18.087930 -42.946061
	271	1	-4.851180 15.503940 -42.012451
	272	1	-4.851180 18.087930 -40.145231
	273	1	-3.234120 15.503940 -44.813281
	274	1	-3.234120 18.087930 -42.946061
	275	1	-1.617060 15.503940 -42.012451
	276	1	-1.617060 18.087930 -40.145231
	277	1	0.000000 15.503940 -44.813281
	278	1	0.000000 18.087930 -42.946061
	279	1	1.617060 15.503940 -42.012451
	280	1	1.617060 18.087930 -40.145231
	281	1	3.234120 15.503940 -44.813281
	282	1	3.234120 18.087930 -42.946061
	283	1	4.851180 15.503940 -42.012451
	284	1	4.851180 18.087930 -40.145231
	285	1	6.468240 15.503940 -44.813281
	286	1	6.468240 18.087930 -42.946061
	287	1	8.085300 15.503940 -42.012451
	288	1	8.085300 18.087930 -40.145231
	289	1	-9.702360 20.671920 -44.813281
	290	1	-9.702360 23.255910 -42.946061
	291	1	-8.085300 20.671920 -42.012451
	292	1	-8.085300 23.255910 -40.145231
	293	1	-6.468240 20.671920 -44.813281
	294	1	-6.468240 23.255910 -42.946061
	295	1	-4.851180 20.671920 -42.012451
	296	1	-4.851180 23.255910 -40.145231
	297	1	-3.234120 20.671920 -44.813281
	298	1	-3.234120 23.255910 -42.946061
	299	1	-1.617060 20.671920 -42.012451
	300	1	-1.617060 23.255910 -40.145231
	301	1	0.000000 20.671920 -44.813281
	302	1	0.000000 23.255910 -42.946061
	303	1	1.617060 20.671920 -42.012451
	304	1	1.617060 23.255910 -40.145231
	305	1	3.234120 20.671920 -44.813281
	306	1	3.234120 23.255910 -42.946061
	307	1	4.851180 20.671920 -42.012451
	308	1	4.851180 23.255910 -40.145231
	309	1	6.468240 20.671920 -44.813281
	310	1	6.468240 23.255910 -42.946061
	311	1	8.085300 20.671920 -42.012451
	312	1	8.085300 23.255910 -40.145231
	313	1	-9.702360 25.839900 -44.813281
	314	1	-9.702360 28.423890 -42.946061
	315	1	-8.085300 25.839900 -42.012451
	316	1	-8.085300 28.423890 -40.145231
	317	1	-6.468240 25.839900 -44.813281
	318	1	-6.468240 28.423890 -42.946061
	319	1	-4.851180 25.839900 -42.012451
	320	1	-4.851180 28.423890 -40.145231
	321	1	-3.234120 25.839900 -44.813281
	322	1	-3.234120 28.423890 -42.946061
	323	1	-1.617060 25.839900 -42.012451
	324	1	-1.617060 28.423890 -40.145231
	325	1	0.000000 25.839900 -44.813281
	326	1	0.000000 28.423890 -42.946061
	327	1	1.617060 25.839900 -42.012451
	328	1	1.617060 28.423890 -40.145231
	329	1	3.234120 25.839900 -44.813281
	330	1	3.234120 28.423890 -42.946061
	331	1	4.851180 25.839900 -42.012451
	332	1	4.851180 28.423890 -40.145231
	333	1	6.468240 25.839900 -44.813281
	334	1	6.468240 28.423890 -42.946061
	335	1	8.085300 25.839900 -42.012451
	336	1	8.085300 28.423890 -40.145231
	337	1	-9.702360 31.007880 -44.813281
	338	1	-9.702360 33.591870 -42.946061
	339	1	-8.085300 31.007880 -42.012451
	340	1	-8.085300 33.591870 -40.145231
	341	1	-6.468240 31.007880 -44.813281
	342	1	-6.468240 33.591870 -42.946061
	343	1	-4.851180 31.007880 -42.012451
	344	1	-4.851180 33.591870 -40.145231
	345	1	-3.234120 31.007880 -44.813281
	346	1	-3.234120 33.591870 -42.946061
	347	1	-1.617060 31.007880 -42.012451
	348	1	-1.617060 33.591870 -40.145231
	349	1	0.000000 31.007880 -44.813281
	350	1	0.000000 33.591870 -42.946061
	351	1	1.617060 31.007880 -42.012451
	352	1	1.617060 33.591870 -40.145231
	353	1	3.234120 31.007880 -44.813281
	354	1	3.234120 33.591870 -42.946061
	355	1	4.851180 31.007880 -42.012451
	356	1	4.851180 33.591870 -40.145231
	357	1	6.468240 31.007880 -44.813281
	358	1	6.468240 33.591870 -42.946061
	359	1	8.085300 31.007880 -42.012451
	360	1	8.085300 33.591870 -40.145231
	361	1	-9.702360 36.175860 -44.813281
	362	1	-9.702360 38.759850 -42.946061
	363	1	-8.085300 36.175860 -42.012451
	364	1	-8.085300 38.759850 -40.145231
	365	1	-6.468240 36.175860 -44.813281
	366	1	-6.468240 38.759850 -42.946061
	367	1	-4.851180 36.175860 -42.012451
	368	1	-4.851180 38.759850 -40.145231
	369	1	-3.234120 36.175860 -44.813281
	370	1	-3.234120 38.759850 -42.946061
	371	1	-1.617060 36.175860 -42.012451
	372	1	-1.617060 38.759850 -40.145231
	373	1	0.000000 36.175860 -44.813281
	374	1	0.000000 38.759850 -42.946061
	375	1	1.617060 36.175860 -42.012451
	376	1	1.617060 38.759850 -40.145231
	377	1	3.234120 36.175860 -44.813281
	378	1	3.234120 38.759850 -42.946061
	379	1	4.851180 36.175860 -42.012451
	380	1	4.851180 38.759850 -40.145231
	381	1	6.468240 36.175860 -44.813281
	382	1	6.468240 38.759850 -42.946061
	383	1	8.085300 36.175860 -42.012451
	384	1	8.085300 38.759850 -40.145231
	385	1	-9.702360 -41.343840 -39.211621
	386	1	-9.702360 -38.759850 -37.344401
	387	1	-8.085300 -41.343840 -36.410791
	388	1	-8.085300 -38.759850 -34.543571
	389	1	-6.468240 -41.343840 -39.211621
	390	1	-6.468240 -38.759850 -37.344401
	391	1	-4.851180 -41.343840 -36.410791
	392	1	-4.851180 -38.759850 -34.543571
	393	1	-3.234120 -41.343840 -39.211621
	394	1	-3.234120 -38.759850 -37.344401
	395	1	-1.617060 -41.343840 -36.410791
	396	1	-1.617060 -38.759850 -34.543571
	397	1	0.000000 -41.343840 -39.211621
	398	1	0.000000 -38.759850 -37.344401
	399	1	1.617060 -41.343840 -36.410791
	400	1	1.617060 -38.759850 -34.543571
	401	1	3.234120 -41.343840 -39.211621
	402	1	3.234120 -38.759850 -37.344401
	403	1	4.851180 -41.343840 -36.410791
	404	1	4.851180 -38.759850 -34.543571
	405	1	6.468240 -41.343840 -39.211621
	406	1	6.468240 -38.759850 -37.344401
	407	1	8.085300 -41.343840 -36.410791
	408	1	8.085300 -38.759850 -34.543571
	409	1	-9.702360 -36.175860 -39.211621
	410	1	-9.702360 -33.591870 -37.344401
	411	1	-8.085300 -36.175860 -36.410791
	412	1	-8.085300 -33.591870 -34.543571
	413	1	-6.468240 -36.175860 -39.211621
	414	1	-6.468240 -33.591870 -37.344401
	415	1	-4.851180 -36.175860 -36.410791
	416	1	-4.851180 -33.591870 -34.543571
	417	1	-3.234120 -36.175860 -39.211621
	418	1	-3.234120 -33.591870 -37.344401
	419	1	-1.617060 -36.175860 -36.410791
	420	1	-1.617060 -33.591870 -34.543571
	421	1	0.000000 -36.175860 -39.211621
	422	1	0.000000 -33.591870 -37.344401
	423	1	1.617060 -36.175860 -36.410791
	424	1	1.617060 -33.591870 -34.543571
	425	1	3.234120 -36.175860 -39.211621
	426	1	3.234120 -33.591870 -37.344401
	427	1	4.851180 -36.175860 -36.410791
	428	1	4.851180 -33.591870 -34.543571
	429	1	6.468240 -36.175860 -39.211621
	430	1	6.468240 -33.591870 -37.344401
	431	1	8.085300 -36.175860 -36.410791
	432	1	8.085300 -33.591870 -34.543571
	433	1	-9.702360 -31.007880 -39.211621
	434	1	-9.702360 -28.423890 -37.344401
	435	1	-8.085300 -31.007880 -36.410791
	436	1	-8.085300 -28.423890 -34.543571
	437	1	-6.468240 -31.007880 -39.211621
	438	1	-6.468240 -28.423890 -37.344401
	439	1	-4.851180 -31.007880 -36.410791
	440	1	-4.851180 -28.423890 -34.543571
	441	1	-3.234120 -31.007880 -39.211621
	442	1	-3.234120 -28.423890 -37.344401
	443	1	-1.617060 -31.007880 -36.410791
	444	1	-1.617060 -28.423890 -34.543571
	445	1	0.000000 -31.007880 -39.211621
	446	1	0.000000 -28.423890 -37.344401
	447	1	1.617060 -31.007880 -36.410791
	448	1	1.617060 -28.423890 -34.543571
	449	1	3.234120 -31.007880 -39.211621
	450	1	3.234120 -28.423890 -37.344401
	451	1	4.851180 -31.007880 -36.410791
	452	1	4.851180 -28.423890 -34.543571
	453	1	6.468240 -31.007880 -39.211621
	454	1	6.468240 -28.423890 -37.344401
	455	1	8.085300 -31.007880 -36.410791
	456	1	8.085300 -28.423890 -34.543571
	457	1	-9.702360 -25.839900 -39.211621
	458	1	-9.702360 -23.255910 -37.344401
	459	1	-8.085300 -25.839900 -36.410791
	460	1	-8.085300 -23.255910 -34.543571
	461	1	-6.468240 -25.839900 -39.211621
	462	1	-6.468240 -23.255910 -37.344401
	463	1	-4.851180 -25.839900 -36.410791
	464	1	-4.851180 -23.255910 -34.543571
	465	1	-3.234120 -25.839900 -39.211621
	466	1	-3.234120 -23.255910 -37.344401
	467	1	-1.617060 -25.839900 -36.410791
	468	1	-1.617060 -23.255910 -34.543571
	469	1	0.000000 -25.839900 -39.211621
	470	1	0.000000 -23.255910 -37.344401
	471	1	1.617060 -25.839900 -36.410791
	472	1	1.617060 -23.255910 -34.543571
	473	1	3.234120 -25.839900 -39.211621
	474	1	3.234120 -23.255910 -37.344401
	475	1	4.851180 -25.839900 -36.410791
	476	1	4.851180 -23.255910 -34.543571
	477	1	6.468240 -25.839900 -39.211621
	478	1	6.468240 -23.255910 -37.344401
	479	1	8.085300 -25.839900 -36.410791
	480	1	8.085300 -23.255910 -34.543571
	481	1	-9.702360 -20.671920 -39.211621
	482	1	-9.702360 -18.087930 -37.344401
	483	1	-8.085300 -20.671920 -36.410791
	484	1	-8.085300 -18.087930 -34.543571
	485	1	-6.468240 -20.671920 -39.211621
	486	1	-6.468240 -18.087930 -37.344401
	487	1	-4.851180 -20.671920 -36.410791
	488	1	-4.851180 -18.087930 -34.543571
	489	1	-3.234120 -20.671920 -39.211621
	490	1	-3.234120 -18.087930 -37.344401
	491	1	-1.617060 -20.671920 -36.410791
	492	1	-1.617060 -18.087930 -34.543571
	493	1	0.000000 -20.671920 -39.211621
	494	1	0.000000 -18.087930 -37.344401
	495	1	1.617060 -20.671920 -36.410791
	496	1	1.617060 -18.087930 -34.543571
	497	1	3.234120 -20.671920 -39.211621
	498	1	3.234120 -18.087930 -37.344401
	499	1	4.851180 -20.671920 -36.410791
	500	1	4.851180 -18.087930 -34.543571
	501	1	6.468240 -20.671920 -39.211621
	502	1	6.468240 -18.087930 -37.344401
	503	1	8.085300 -20.671920 -36.410791
	504	1	8.085300 -18.087930 -34.543571
	505	1	-9.702360 -15.503940 -39.211621
	506	1	-9.702360 -12.919950 -37.344401
	507	1	-8.085300 -15.503940 -36.410791
	508	1	-8.085300 -12.919950 -34.543571
	509	1	-6.468240 -15.503940 -39.211621
	510	1	-6.468240 -12.919950 -37.344401
	511	1	-4.851180 -15.503940 -36.410791
	512	1	-4.851180 -12.919950 -34.543571
	513	1	-3.234120 -15.503940 -39.211621
	514	1	-3.234120 -12.919950 -37.344401
	515	1	-1.617060 -15.503940 -36.410791
	516	1	-1.617060 -12.919950 -34.543571
	517	1	0.000000 -15.503940 -39.211621
	518	1	0.000000 -12.919950 -37.344401
	519	1	1.617060 -15.503940 -36.410791
	520	1	1.617060 -12.919950 -34.543571
	521	1	3.234120 -15.503940 -39.211621
	522	1	3.234120 -12.919950 -37.344401
	523	1	4.851180 -15.503940 -36.410791
	524	1	4.851180 -12.919950 -34.543571
	525	1	6.468240 -15.503940 -39.211621
	526	1	6.468240 -12.919950 -37.344401
	527	1	8.085300 -15.503940 -36.410791
	528	1	8.085300 -12.919950 -34.543571
	529	1	-9.702360 -10.335960 -39.211621
	530	1	-9.702360 -7.751970 -37.344401
	531	1	-8.085300 -10.335960 -36.410791
	532	1	-8.085300 -7.751970 -34.543571
	533	1	-6.468240 -10.335960 -39.211621
	534	1	-6.468240 -7.751970 -37.344401
	535	1	-4.851180 -10.335960 -36.410791
	536	1	-4.851180 -7.751970 -34.543571
	537	1	-3.234120 -10.335960 -39.211621
	538	1	-3.234120 -7.751970 -37.344401
	539	1	-1.617060 -10.335960 -36.410791
	540	1	-1.617060 -7.751970 -34.543571
	541	1	0.000000 -10.335960 -39.211621
	542	1	0.000000 -7.751970 -37.344401
	543	1	1.617060 -10.335960 -36.410791
	544	1	1.617060 -7.751970 -34.543571
	545	1	3.234120 -10.335960 -39.211621
	546	1	3.234120 -7.751970 -37.344401
	547	1	4.851180 -10.335960 -36.410791
	548	1	4.851180 -7.751970 -34.543571
	549	1	6.468240 -10.335960 -39.211621
	550	1	6.468240 -7.751970 -37.344401
	551	1	8.085300 -10.335960 -36.410791
	552	1	8.085300 -7.751970 -34.543571
	553	1	-9.702360 -5.167980 -39.211621
	554	1	-9.702360 -2.583990 -37.344401
	555	1	-8.085300 -5.167980 -36.410791
	556	1	-8.085300 -2.583990 -34.543571
	557	1	-6.468240 -5.167980 -39.211621
	558	1	-6.468240 -2.583990 -37.344401
	559	1	-4.851180 -5.167980 -36.410791
	560	1	-4.851180 -2.583990 -34.543571
	561	1	-3.234120 -5.167980 -39.211621
	562	1	-3.234120 -2.583990 -37.344401
	563	1	-1.617060 -5.167980 -36.410791
	564	1	-1.617060 -2.583990 -34.543571
	565	1	0.000000 -5.167980 -39.211621
	566	1	0.000000 -2.583990 -37.344401
	567	1	1.617060 -5.167980 -36.410791
	568	1	1.617060 -2.583990 -34.543571
	569	1	3.234120 -5.167980 -39.211621
	570	1	3.234120 -2.583990 -37.344401
	571	1	4.851180 -5.167980 -36.410791
	572	1	4.851180 -2.583990 -34.543571
	573	1	6.468240 -5.167980 -39.211621
	574	1	6.468240 -2.583990 -37.344401
	575	1	8.085300 -5.167980 -36.410791
	576	1	8.085300 -2.583990 -34.543571
	577	1	-9.702360 0.000000 -39.211621
	578	1	-9.702360 2.583990 -37.344401
	579	1	-8.085300 0.000000 -36.410791
	580	1	-8.085300 2.583990 -34.543571
	581	1	-6.468240 0.000000 -39.211621
	582	1	-6.468240 2.583990 -37.344401
	583	1	-4.851180 0.000000 -36.410791
	584	1	-4.851180 2.583990 -34.543571
	585	1	-3.234120 0.000000 -39.211621
	586	1	-3.234120 2.583990 -37.344401
	587	1	-1.617060 0.000000 -36.410791
	588	1	-1.617060 2.583990 -34.543571
	589	1	0.000000 0.000000 -39.211621
	590	1	0.000000 2.583990 -37.344401
	591	1	1.617060 0.000000 -36.410791
	592	1	1.617060 2.583990 -34.543571
	593	1	3.234120 0.000000 -39.211621
	594	1	3.234120 2.583990 -37.344401
	595	1	4.851180 0.000000 -36.410791
	596	1	4.851180 2.583990 -34.543571
	597	1	6.468240 0.000000 -39.211621
	598	1	6.468240 2.583990 -37.344401
	599	1	8.085300 0.000000 -36.410791
	600	1	8.085300 2.583990 -34.543571
	601	1	-9.702360 5.167980 -39.211621
	602	1	-9.702360 7.751970 -37.344401
	603	1	-8.085300 5.167980 -36.410791
	604	1	-8.085300 7.751970 -34.543571
	605	1	-6.468240 5.167980 -39.211621
	606	1	-6.468240 7.751970 -37.344401
	607	1	-4.851180 5.167980 -36.410791
	608	1	-4.851180 7.751970 -34.543571
	609	1	-3.234120 5.167980 -39.211621
	610	1	-3.234120 7.751970 -37.344401
	611	1	-1.617060 5.167980 -36.410791
	612	1	-1.617060 7.751970 -34.543571
	613	1	0.000000 5.167980 -39.211621
	614	1	0.000000 7.751970 -37.344401
	615	1	1.617060 5.167980 -36.410791
	616	1	1.617060 7.751970 -34.543571
	617	1	3.234120 5.167980 -39.211621
	618	1	3.234120 7.751970 -37.344401
	619	1	4.851180 5.167980 -36.410791
	620	1	4.851180 7.751970 -34.543571
	621	1	6.468240 5.167980 -39.211621
	622	1	6.468240 7.751970 -37.344401
	623	1	8.085300 5.167980 -36.410791
	624	1	8.085300 7.751970 -34.543571
	625	1	-9.702360 10.335960 -39.211621
	626	1	-9.702360 12.919950 -37.344401
	627	1	-8.085300 10.335960 -36.410791
	628	1	-8.085300 12.919950 -34.543571
	629	1	-6.468240 10.335960 -39.211621
	630	1	-6.468240 12.919950 -37.344401
	631	1	-4.851180 10.335960 -36.410791
	632	1	-4.851180 12.919950 -34.543571
	633	1	-3.234120 10.335960 -39.211621
	634	1	-3.234120 12.919950 -37.344401
	635	1	-1.617060 10.335960 -36.410791
	636	1	-1.617060 12.919950 -34.543571
	637	1	0.000000 10.335960 -39.211621
	638	1	0.000000 12.919950 -37.344401
	639	1	1.617060 10.335960 -36.410791
	640	1	1.617060 12.919950 -34.543571
	641	1	3.234120 10.335960 -39.211621
	642	1	3.234120 12.919950 -37.344401
	643	1	4.851180 10.335960 -36.410791
	644	1	4.851180 12.919950 -34.543571
	645	1	6.468240 10.335960 -39.211621
	646	1	6.468240 12.919950 -37.344401
	647	1	8.085300 10.335960 -36.410791
	648	1	8.085300 12.919950 -34.543571
	649	1	-9.702360 15.503940 -39.211621
	650	1	-9.702360 18.087930 -37.344401
	651	1	-8.085300 15.503940 -36.410791
	652	1	-8.085300 18.087930 -34.543571
	653	1	-6.468240 15.503940 -39.211621
	654	1	-6.468240 18.087930 -37.344401
	655	1	-4.851180 15.503940 -36.410791
	656	1	-4.851180 18.087930 -34.543571
	657	1	-3.234120 15.503940 -39.211621
	658	1	-3.234120 18.087930 -37.344401
	659	1	-1.617060 15.503940 -36.410791
	660	1	-1.617060 18.087930 -34.543571
	661	1	0.000000 15.503940 -39.211621
	662	1	0.000000 18.087930 -37.344401
	663	1	1.617060 15.503940 -36.410791
	664	1	1.617060 18.087930 -34.543571
	665	1	3.234120 15.503940 -39.211621
	666	1	3.234120 18.087930 -37.344401
	667	1	4.851180 15.503940 -36.410791
	668	1	4.851180 18.087930 -34.543571
	669	1	6.468240 15.503940 -39.211621
	670	1	6.468240 18.087930 -37.344401
	671	1	8.085300 15.503940 -36.410791
	672	1	8.085300 18.087930 -34.543571
	673	1	-9.702360 20.671920 -39.211621
	674	1	-9.702360 23.255910 -37.344401
	675	1	-8.085300 20.671920 -36.410791
	676	1	-8.085300 23.255910 -34.543571
	677	1	-6.468240 20.671920 -39.211621
	678	1	-6.468240 23.255910 -37.344401
	679	1	-4.851180 20.671920 -36.410791
	680	1	-4.851180 23.255910 -34.543571
	681	1	-3.234120 20.671920 -39.211621
	682	1	-3.234120 23.255910 -37.344401
	683	1	-1.617060 20.671920 -36.410791
	684	1	-1.617060 23.255910 -34.543571
	685	1	0.000000 20.671920 -39.211621
	686	1	0.000000 23.255910 -37.344401
	687	1	1.617060 20.671920 -36.410791
	688	1	1.617060 23.255910 -34.543571
	689	1	3.234120 20.671920 -39.211621
	690	1	3.234120 23.255910 -37.344401
	691	1	4.851180 20.671920 -36.410791
	692	1	4.851180 23.255910 -34.543571
	693	1	6.468240 20.671920 -39.211621
	694	1	6.468240 23.255910 -37.344401
	695	1	8.085300 20.671920 -36.410791
	696	1	8.085300 23.255910 -34.543571
	697	1	-9.702360 25.839900 -39.211621
	698	1	-9.702360 28.423890 -37.344401
	699	1	-8.085300 25.839900 -36.410791
	700	1	-8.085300 28.423890 -34.543571
	701	1	-6.468240 25.839900 -39.211621
	702	1	-6.468240 28.423890 -37.344401
	703	1	-4.851180 25.839900 -36.410791
	704	1	-4.851180 28.423890 -34.543571
	705	1	-3.234120 25.839900 -39.211621
	706	1	-3.234120 28.423890 -37.344401
	707	1	-1.617060 25.839900 -36.410791
	708	1	-1.617060 28.423890 -34.543571
	709	1	0.000000 25.839900 -39.211621
	710	1	0.000000 28.423890 -37.344401
	711	1	1.617060 25.839900 -36.410791
	712	1	1.617060 28.423890 -34.543571
	713	1	3.234120 25.839900 -39.211621
	714	1	3.234120 28.423890 -37.344401
	715	1	4.851180 25.839900 -36.410791
	716	1	4.851180 28.423890 -34.543571
	717	1	6.468240 25.839900 -39.211621
	718	1	6.468240 28.423890 -37.344401
	719	1	8.085300 25.839900 -36.410791
	720	1	8.085300 28.423890 -34.543571
	721	1	-9.702360 31.007880 -39.211621
	722	1	-9.702360 33.591870 -37.344401
	723	1	-8.085300 31.007880 -36.410791
	724	1	-8.085300 33.591870 -34.543571
	725	1	-6.468240 31.007880 -39.211621
	726	1	-6.468240 33.591870 -37.344401
	727	1	-4.851180 31.007880 -36.410791
	728	1	-4.851180 33.591870 -34.543571
	729	1	-3.234120 31.007880 -39.211621
	730	1	-3.234120 33.591870 -37.344401
	731	1	-1.617060 31.007880 -36.410791
	732	1	-1.617060 33.591870 -34.543571
	733	1	0.000000 31.007880 -39.211621
	734	1	0.000000 33.591870 -37.344401
	735	1	1.617060 31.007880 -36.410791
	736	1	1.617060 33.591870 -34.543571
	737	1	3.234120 31.007880 -39.211621
	738	1	3.234120 33.591870 -37.344401
	739	1	4.851180 31.007880 -36.410791
	740	1	4.851180 33.591870 -34.543571
	741	1	6.468240 31.007880 -39.211621
	742	1	6.468240 33.591870 -37.344401
	743	1	8.085300 31.007880 -36.410791
	744	1	8.085300 33.591870 -34.543571
	745	1	-9.702360 36.175860 -39.211621
	746	1	-9.702360 38.759850 -37.344401
	747	1	-8.085300 36.175860 -36.410791
	748	1	-8.085300 38.759850 -34.543571
	749	1	-6.468240 36.175860 -39.211621
	750	1	-6.468240 38.759850 -37.344401
	751	1	-4.851180 36.175860 -36.410791
	752	1	-4.851180 38.759850 -34.543571
	753	1	-3.234120 36.175860 -39.211621
	754	1	-3.234120 38.759850 -37.344401
	755	1	-1.617060 36.175860 -36.410791
	756	1	-1.617060 38.759850 -34.543571
	757	1	0.000000 36.175860 -39.211621
	758	1	0.000000 38.759850 -37.344401
	759	1	1.617060 36.175860 -36.410791
	760	1	1.617060 38.759850 -34.543571
	761	1	3.234120 36.175860 -39.211621
	762	1	3.234120 38.759850 -37.344401
	763	1	4.851180 36.175860 -36.410791
	764	1	4.851180 38.759850 -34.543571
	765	1	6.468240 36.175860 -39.211621
	766	1	6.468240 38.759850 -37.344401
	767	1	8.085300 36.175860 -36.410791
	768	1	8.085300 38.759850 -34.543571
	769	1	-9.702360 -41.343840 -33.609961
	770	1	-9.702360 -38.759850 -31.742741
	771	1	-8.085300 -41.343840 -30.809131
	772	1	-8.085300 -38.759850 -28.941911
	773	1	-6.468240 -41.343840 -33.609961
	774	1	-6.468240 -38.759850 -31.742741
	775	1	-4.851180 -41.343840 -30.809131
	776	1	-4.851180 -38.759850 -28.941911
	777	1	-3.234120 -41.343840 -33.609961
	778	1	-3.234120 -38.759850 -31.742741
	779	1	-1.617060 -41.343840 -30.809131
	780	1	-1.617060 -38.759850 -28.941911
	781	1	0.000000 -41.343840 -33.609961
	782	1	0.000000 -38.759850 -31.742741
	783	1	1.617060 -41.343840 -30.809131
	784	1	1.617060 -38.759850 -28.941911
	785	1	3.234120 -41.343840 -33.609961
	786	1	3.234120 -38.759850 -31.742741
	787	1	4.851180 -41.343840 -30.809131
	788	1	4.851180 -38.759850 -28.941911
	789	1	6.468240 -41.343840 -33.609961