ITEM: TIMESTEP
0
ITEM: NUMBER OF ATOMS
6144
ITEM: BOX BOUNDS pp pp ss
-9.70236 9.70236
-41.34384 41.34384
-44.81328 44.81328
ITEM: ATOMS id type x y z
1 1 -9.7024 -41.3438 -44.8133
2 1 -9.7024 -38.7599 -42.9461
3 1 -8.0853 -41.3438 -42.0125
4 1 -8.0853 -38.7599 -40.1452
5 1 -6.4682 -41.3438 -44.8133
6 1 -6.4682 -38.7599 -42.9461
7 1 -4.8512 -41.3438 -42.0125
8 1 -4.8512 -38.7599 -40.1452
9 1 -3.2341 -41.3438 -44.8133
10 1 -3.2341 -38.7599 -42.9461
11 1 -1.6171 -41.3438 -42.0125
12 1 -1.6171 -38.7599 -40.1452
13 1 0.0000 -41.3438 -44.8133
14 1 0.0000 -38.7599 -42.9461
15 1 1.6171 -41.3438 -42.0125
16 1 1.6171 -38.7599 -40.1452
17 1 3.2341 -41.3438 -44.8133
18 1 3.2341 -38.7599 -42.9461
19 1 4.8512 -41.3438 -42.0125
20 1 4.8512 -38.7599 -40.1452
21 1 6.4682 -41.3438 -44.8133
22 1 6.4682 -38.7599 -42.9461
23 1 8.0853 -41.3438 -42.0125
24 1 8.0853 -38.7599 -40.1452
25 1 -9.7024 -36.1759 -44.8133
26 1 -9.7024 -33.5919 -42.9461
27 1 -8.0853 -36.1759 -42.0125
28 1 -8.0853 -33.5919 -40.1452
29 1 -6.4682 -36.1759 -44.8133
30 1 -6.4682 -33.5919 -42.9461
31 1 -4.8512 -36.1759 -42.0125
32 1 -4.8512 -33.5919 -40.1452
33 1 -3.2341 -36.1759 -44.8133
34 1 -3.2341 -33.5919 -42.9461
35 1 -1.6171 -36.1759 -42.0125
36 1 -1.6171 -33.5919 -40.1452
37 1 0.0000 -36.1759 -44.8133
38 1 0.0000 -33.5919 -42.9461
39 1 1.6171 -36.1759 -42.0125
40 1 1.6171 -33.5919 -40.1452
41 1 3.2341 -36.1759 -44.8133
42 1 3.2341 -33.5919 -42.9461
43 1 4.8512 -36.1759 -42.0125
44 1 4.8512 -33.5919 -40.1452
45 1 6.4682 -36.1759 -44.8133
46 1 6.4682 -33.5919 -42.9461
47 1 8.0853 -36.1759 -42.0125
48 1 8.0853 -33.5919 -40.1452
49 1 -9.7024 -31.0079 -44.8133
50 1 -9.7024 -28.4239 -42.9461
51 1 -8.0853 -31.0079 -42.0125
52 1 -8.0853 -28.4239 -40.1452
53 1 -6.4682 -31.0079 -44.8133
54 1 -6.4682 -28.4239 -42.9461
55 1 -4.8512 -31.0079 -42.0125
56 1 -4.8512 -28.4239 -40.1452
57 1 -3.2341 -31.0079 -44.8133
58 1 -3.2341 -28.4239 -42.9461
59 1 -1.6171 -31.0079 -42.0125
60 1 -1.6171 -28.4239 -40.1452
61 1 0.0000 -31.0079 -44.8133
62 1 0.0000 -28.4239 -42.9461
63 1 1.6171 -31.0079 -42.0125
64 1 1.6171 -28.4239 -40.1452
65 1 3.2341 -31.0079 -44.8133
66 1 3.2341 -28.4239 -42.9461
67 1 4.8512 -31.0079 -42.0125
68 1 4.8512 -28.4239 -40.1452
69 1 6.4682 -31.0079 -44.8133
70 1 6.4682 -28.4239 -42.9461
71 1 8.0853 -31.0079 -42.0125
72 1 8.0853 -28.4239 -40.1452
73 1 -9.7024 -25.8399 -44.8133
74 1 -9.7024 -23.2559 -42.9461
75 1 -8.0853 -25.8399 -42.0125
76 1 -8.0853 -23.2559 -40.1452
77 1 -6.4682 -25.8399 -44.8133
78 1 -6.4682 -23.2559 -42.9461
79 1 -4.8512 -25.8399 -42.0125
80 1 -4.8512 -23.2559 -40.1452
81 1 -3.2341 -25.8399 -44.8133
82 1 -3.2341 -23.2559 -42.9461
83 1 -1.6171 -25.8399 -42.0125
84 1 -1.6171 -23.2559 -40.1452
85 1 0.0000 -25.8399 -44.8133
86 1 0.0000 -23.2559 -42.9461
87 1 1.6171 -25.8399 -42.0125
88 1 1.6171 -23.2559 -40.1452
89 1 3.2341 -25.8399 -44.8133
90 1 3.2341 -23.2559 -42.9461
91 1 4.8512 -25.8399 -42.0125
92 1 4.8512 -23.2559 -40.1452
93 1 6.4682 -25.8399 -44.8133
94 1 6.4682 -23.2559 -42.9461
95 1 8.0853 -25.8399 -42.0125
96 1 8.0853 -23.2559 -40.1452
97 1 -9.7024 -20.6719 -44.8133
98 1 -9.7024 -18.0879 -42.9461
99 1 -8.0853 -20.6719 -42.0125
100 1 -8.0853 -18.0879 -40.1452
101 1 -6.4682 -20.6719 -44.8133
102 1 -6.4682 -18.0879 -42.9461
103 1 -4.8512 -20.6719 -42.0125
104 1 -4.8512 -18.0879 -40.1452
105 1 -3.2341 -20.6719 -44.8133
106 1 -3.2341 -18.0879 -42.9461
107 1 -1.6171 -20.6719 -42.0125
108 1 -1.6171 -18.0879 -40.1452
109 1 0.0000 -20.6719 -44.8133
110 1 0.0000 -18.0879 -42.9461
111 1 1.6171 -20.6719 -42.0125
112 1 1.6171 -18.0879 -40.1452
113 1 3.2341 -20.6719 -44.8133
114 1 3.2341 -18.0879 -42.9461
115 1 4.8512 -20.6719 -42.0125
116 1 4.8512 -18.0879 -40.1452
117 1 6.4682 -20.6719 -44.8133
118 1 6.4682 -18.0879 -42.9461
119 1 8.0853 -20.6719 -42.0125
120 1 8.0853 -18.0879 -40.1452
121 1 -9.7024 -15.5039 -44.8133
122 1 -9.7024 -12.9200 -42.9461
123 1 -8.0853 -15.5039 -42.0125
124 1 -8.0853 -12.9200 -40.1452
125 1 -6.4682 -15.5039 -44.8133
126 1 -6.4682 -12.9200 -42.9461
127 1 -4.8512 -15.5039 -42.0125
128 1 -4.8512 -12.9200 -40.1452
129 1 -3.2341 -15.5039 -44.8133
130 1 -3.2341 -12.9200 -42.9461
131 1 -1.6171 -15.5039 -42.0125
132 1 -1.6171 -12.9200 -40.1452
133 1 0.0000 -15.5039 -44.8133
134 1 0.0000 -12.9200 -42.9461
135 1 1.6171 -15.5039 -42.0125
136 1 1.6171 -12.9200 -40.1452
137 1 3.2341 -15.5039 -44.8133
138 1 3.2341 -12.9200 -42.9461
139 1 4.8512 -15.5039 -42.0125
140 1 4.8512 -12.9200 -40.1452
141 1 6.4682 -15.5039 -44.8133
142 1 6.4682 -12.9200 -42.9461
143 1 8.0853 -15.5039 -42.0125
144 1 8.0853 -12.9200 -40.1452
145 1 -9.7024 -10.3360 -44.8133
146 1 -9.7024 -7.7520 -42.9461
147 1 -8.0853 -10.3360 -42.0125
148 1 -8.0853 -7.7520 -40.1452
149 1 -6.4682 -10.3360 -44.8133
150 1 -6.4682 -7.7520 -42.9461
151 1 -4.8512 -10.3360 -42.0125
152 1 -4.8512 -7.7520 -40.1452
153 1 -3.2341 -10.3360 -44.8133
154 1 -3.2341 -7.7520 -42.9461
155 1 -1.6171 -10.3360 -42.0125
156 1 -1.6171 -7.7520 -40.1452
157 1 0.0000 -10.3360 -44.8133
158 1 0.0000 -7.7520 -42.9461
159 1 1.6171 -10.3360 -42.0125
160 1 1.6171 -7.7520 -40.1452
161 1 3.2341 -10.3360 -44.8133
162 1 3.2341 -7.7520 -42.9461
163 1 4.8512 -10.3360 -42.0125
164 1 4.8512 -7.7520 -40.1452
165 1 6.4682 -10.3360 -44.8133
166 1 6.4682 -7.7520 -42.9461
167 1 8.0853 -10.3360 -42.0125
168 1 8.0853 -7.7520 -40.1452
169 1 -9.7024 -5.1680 -44.8133
170 1 -9.7024 -2.5840 -42.9461
171 1 -8.0853 -5.1680 -42.0125
172 1 -8.0853 -2.5840 -40.1452
173 1 -6.4682 -5.1680 -44.8133
174 1 -6.4682 -2.5840 -42.9461
175 1 -4.8512 -5.1680 -42.0125
176 1 -4.8512 -2.5840 -40.1452
177 1 -3.2341 -5.1680 -44.8133
178 1 -3.2341 -2.5840 -42.9461
179 1 -1.6171 -5.1680 -42.0125
180 1 -1.6171 -2.5840 -40.1452
181 1 0.0000 -5.1680 -44.8133
182 1 0.0000 -2.5840 -42.9461
183 1 1.6171 -5.1680 -42.0125
184 1 1.6171 -2.5840 -40.1452
185 1 3.2341 -5.1680 -44.8133
186 1 3.2341 -2.5840 -42.9461
187 1 4.8512 -5.1680 -42.0125
188 1 4.8512 -2.5840 -40.1452
189 1 6.4682 -5.1680 -44.8133
190 1 6.4682 -2.5840 -42.9461
191 1 8.0853 -5.1680 -42.0125
192 1 8.0853 -2.5840 -40.1452
193 1 -9.7024 0.0000 -44.8133
194 1 -9.7024 2.5840 -42.9461
195 1 -8.0853 0.0000 -42.0125
196 1 -8.0853 2.5840 -40.1452
197 1 -6.4682 0.0000 -44.8133
198 1 -6.4682 2.5840 -42.9461
199 1 -4.8512 0.0000 -42.0125
200 1 -4.8512 2.5840 -40.1452
201 1 -3.2341 0.0000 -44.8133
202 1 -3.2341 2.5840 -42.9461
203 1 -1.6171 0.0000 -42.0125
204 1 -1.6171 2.5840 -40.1452
205 1 0.0000 0.0000 -44.8133
206 1 0.0000 2.5840 -42.9461
207 1 1.6171 0.0000 -42.0125
208 1 1.6171 2.5840 -40.1452
209 1 3.2341 0.0000 -44.8133
210 1 3.2341 2.5840 -42.9461
211 1 4.8512 0.0000 -42.0125
212 1 4.8512 2.5840 -40.1452
213 1 6.4682 0.0000 -44.8133
214 1 6.4682 2.5840 -42.9461
215 1 8.0853 0.0000 -42.0125
216 1 8.0853 2.5840 -40.1452
217 1 -9.7024 5.1680 -44.8133
218 1 -9.7024 7.7520 -42.9461
219 1 -8.0853 5.1680 -42.0125
220 1 -8.0853 7.7520 -40.1452
221 1 -6.4682 5.1680 -44.8133
222 1 -6.4682 7.7520 -42.9461
223 1 -4.8512 5.1680 -42.0125
224 1 -4.8512 7.7520 -40.1452
225 1 -3.2341 5.1680 -44.8133
226 1 -3.2341 7.7520 -42.9461
227 1 -1.6171 5.1680 -42.0125
228 1 -1.6171 7.7520 -40.1452
229 1 0.0000 5.1680 -44.8133
230 1 0.0000 7.7520 -42.9461
231 1 1.6171 5.1680 -42.0125
232 1 1.6171 7.7520 -40.1452
233 1 3.2341 5.1680 -44.8133
234 1 3.2341 7.7520 -42.9461
235 1 4.8512 5.1680 -42.0125
236 1 4.8512 7.7520 -40.1452
237 1 6.4682 5.1680 -44.8133
238 1 6.4682 7.7520 -42.9461
239 1 8.0853 5.1680 -42.0125
240 1 8.0853 7.7520 -40.1452
241 1 -9.7024 10.3360 -44.8133
242 1 -9.7024 12.9200 -42.9461
243 1 -8.0853 10.3360 -42.0125
244 1 -8.0853 12.9200 -40.1452
245 1 -6.4682 10.3360 -44.8133
246 1 -6.4682 12.9200 -42.9461
247 1 -4.8512 10.3360 -42.0125
248 1 -4.8512 12.9200 -40.1452
249 1 -3.2341 10.3360 -44.8133
250 1 -3.2341 12.9200 -42.9461
251 1 -1.6171 10.3360 -42.0125
252 1 -1.6171 12.9200 -40.1452
253 1 0.0000 10.3360 -44.8133
254 1 0.0000 12.9200 -42.9461
255 1 1.6171 10.3360 -42.0125
256 1 1.6171 12.9200 -40.1452
257 1 3.2341 10.3360 -44.8133
258 1 3.2341 12.9200 -42.9461
259 1 4.8512 10.3360 -42.0125
260 1 4.8512 12.9200 -40.1452
261 1 6.4682 10.3360 -44.8133
262 1 6.4682 12.9200 -42.9461
263 1 8.0853 10.3360 -42.0125
264 1 8.0853 12.9200 -40.1452
265 1 -9.7024 15.5039 -44.8133
266 1 -9.7024 18.0879 -42.9461
267 1 -8.0853 15.5039 -42.0125
268 1 -8.0853 18.0879 -40.1452
269 1 -6.4682 15.5039 -44.8133
270 1 -6.4682 18.0879 -42.9461
271 1 -4.8512 15.5039 -42.0125
272 1 -4.8512 18.0879 -40.1452
273 1 -3.2341 15.5039 -44.8133
274 1 -3.2341 18.0879 -42.9461
275 1 -1.6171 15.5039 -42.0125
276 1 -1.6171 18.0879 -40.1452
277 1 0.0000 15.5039 -44.8133
278 1 0.0000 18.0879 -42.9461
279 1 1.6171 15.5039 -42.0125
280 1 1.6171 18.0879 -40.1452
281 1 3.2341 15.5039 -44.8133
282 1 3.2341 18.0879 -42.9461
283 1 4.8512 15.5039 -42.0125
284 1 4.8512 18.0879 -40.1452
285 1 6.4682 15.5039 -44.8133
286 1 6.4682 18.0879 -42.9461
287 1 8.0853 15.5039 -42.0125
288 1 8.0853 18.0879 -40.1452
289 1 -9.7024 20.6719 -44.8133
290 1 -9.7024 23.2559 -42.9461
291 1 -8.0853 20.6719 -42.0125
292 1 -8.0853 23.2559 -40.1452
293 1 -6.4682 20.6719 -44.8133
294 1 -6.4682 23.2559 -42.9461
295 1 -4.8512 20.6719 -42.0125
296 1 -4.8512 23.2559 -40.1452
297 1 -3.2341 20.6719 -44.8133
298 1 -3.2341 23.2559 -42.9461
299 1 -1.6171 20.6719 -42.0125
300 1 -1.6171 23.2559 -40.1452
301 1 0.0000 20.6719 -44.8133
302 1 0.0000 23.2559 -42.9461
303 1 1.6171 20.6719 -42.0125
304 1 1.6171 23.2559 -40.1452
305 1 3.2341 20.6719 -44.8133
306 1 3.2341 23.2559 -42.9461
307 1 4.8512 20.6719 -42.0125
308 1 4.8512 23.2559 -40.1452
309 1 6.4682 20.6719 -44.8133
310 1 6.4682 23.2559 -42.9461
311 1 8.0853 20.6719 -42.0125
312 1 8.0853 23.2559 -40.1452
313 1 -9.7024 25.8399 -44.8133
314 1 -9.7024 28.4239 -42.9461
315 1 -8.0853 25.8399 -42.0125
316 1 -8.0853 28.4239 -40.1452
317 1 -6.4682 25.8399 -44.8133
318 1 -6.4682 28.4239 -42.9461
319 1 -4.8512 25.8399 -42.0125
320 1 -4.8512 28.4239 -40.1452
321 1 -3.2341 25.8399 -44.8133
322 1 -3.2341 28.4239 -42.9461
323 1 -1.6171 25.8399 -42.0125
324 1 -1.6171 28.4239 -40.1452
325 1 0.0000 25.8399 -44.8133
326 1 0.0000 28.4239 -42.9461
327 1 1.6171 25.8399 -42.0125
328 1 1.6171 28.4239 -40.1452
329 1 3.2341 25.8399 -44.8133
330 1 3.2341 28.4239 -42.9461
331 1 4.8512 25.8399 -42.0125
332 1 4.8512 28.4239 -40.1452
333 1 6.4682 25.8399 -44.8133
334 1 6.4682 28.4239 -42.9461
335 1 8.0853 25.8399 -42.0125
336 1 8.0853 28.4239 -40.1452
337 1 -9.7024 31.0079 -44.8133
338 1 -9.7024 33.5919 -42.9461
339 1 -8.0853 31.0079 -42.0125
340 1 -8.0853 33.5919 -40.1452
341 1 -6.4682 31.0079 -44.8133
342 1 -6.4682 33.5919 -42.9461
343 1 -4.8512 31.0079 -42.0125
344 1 -4.8512 33.5919 -40.1452
345 1 -3.2341 31.0079 -44.8133
346 1 -3.2341 33.5919 -42.9461
347 1 -1.6171 31.0079 -42.0125
348 1 -1.6171 33.5919 -40.1452
349 1 0.0000 31.0079 -44.8133
350 1 0.0000 33.5919 -42.9461
351 1 1.6171 31.0079 -42.0125
352 1 1.6171 33.5919 -40.1452
353 1 3.2341 31.0079 -44.8133
354 1 3.2341 33.5919 -42.9461
355 1 4.8512 31.0079 -42.0125
356 1 4.8512 33.5919 -40.1452
357 1 6.4682 31.0079 -44.8133
358 1 6.4682 33.5919 -42.9461
359 1 8.0853 31.0079 -42.0125
360 1 8.0853 33.5919 -40.1452
361 1 -9.7024 36.1759 -44.8133
362 1 -9.7024 38.7599 -42.9461
363 1 -8.0853 36.1759 -42.0125
364 1 -8.0853 38.7599 -40.1452
365 1 -6.4682 36.1759 -44.8133
366 1 -6.4682 38.7599 -42.9461
367 1 -4.8512 36.1759 -42.0125
368 1 -4.8512 38.7599 -40.1452
369 1 -3.2341 36.1759 -44.8133
370 1 -3.2341 38.7599 -42.9461
371 1 -1.6171 36.1759 -42.0125
372 1 -1.6171 38.7599 -40.1452
373 1 0.0000 36.1759 -44.8133
374 1 0.0000 38.7599 -42.9461
375 1 1.6171 36.1759 -42.0125
376 1 1.6171 38.7599 -40.1452
377 1 3.2341 36.1759 -44.8133
378 1 3.2341 38.7599 -42.9461
379 1 4.8512 36.1759 -42.0125
380 1 4.8512 38.7599 -40.1452
381 1 6.4682 36.1759 -44.8133
382 1 6.4682 38.7599 -42.9461
383 1 8.0853 36.1759 -42.0125
384 1 8.0853 38.7599 -40.1452
385 1 -9.7024 -41.3438 -39.2116
386 1 -9.7024 -38.7599 -37.3444
387 1 -8.0853 -41.3438 -36.4108
388 1 -8.0853 -38.7599 -34.5436
389 1 -6.4682 -41.3438 -39.2116
390 1 -6.4682 -38.7599 -37.3444
391 1 -4.8512 -41.3438 -36.4108
392 1 -4.8512 -38.7599 -34.5436
393 1 -3.2341 -41.3438 -39.2116
394 1 -3.2341 -38.7599 -37.3444
395 1 -1.6171 -41.3438 -36.4108
396 1 -1.6171 -38.7599 -34.5436
397 1 0.0000 -41.3438 -39.2116
398 1 0.0000 -38.7599 -37.3444
399 1 1.6171 -41.3438 -36.4108
400 1 1.6171 -38.7599 -34.5436
401 1 3.2341 -41.3438 -39.2116
402 1 3.2341 -38.7599 -37.3444
403 1 4.8512 -41.3438 -36.4108
404 1 4.8512 -38.7599 -34.5436
405 1 6.4682 -41.3438 -39.2116
406 1 6.4682 -38.7599 -37.3444
407 1 8.0853 -41.3438 -36.4108
408 1 8.0853 -38.7599 -34.5436
409 1 -9.7024 -36.1759 -39.2116
410 1 -9.7024 -33.5919 -37.3444
411 1 -8.0853 -36.1759 -36.4108
412 1 -8.0853 -33.5919 -34.5436
413 1 -6.4682 -36.1759 -39.2116
414 1 -6.4682 -33.5919 -37.3444
415 1 -4.8512 -36.1759 -36.4108
416 1 -4.8512 -33.5919 -34.5436
417 1 -3.2341 -36.1759 -39.2116
418 1 -3.2341 -33.5919 -37.3444
419 1 -1.6171 -36.1759 -36.4108
420 1 -1.6171 -33.5919 -34.5436
421 1 0.0000 -36.1759 -39.2116
422 1 0.0000 -33.5919 -37.3444
423 1 1.6171 -36.1759 -36.4108
424 1 1.6171 -33.5919 -34.5436
425 1 3.2341 -36.1759 -39.2116
426 1 3.2341 -33.5919 -37.3444
427 1 4.8512 -36.1759 -36.4108
428 1 4.8512 -33.5919 -34.5436
429 1 6.4682 -36.1759 -39.2116
430 1 6.4682 -33.5919 -37.3444
431 1 8.0853 -36.1759 -36.4108
432 1 8.0853 -33.5919 -34.5436
433 1 -9.7024 -31.0079 -39.2116
434 1 -9.7024 -28.4239 -37.3444
435 1 -8.0853 -31.0079 -36.4108
436 1 -8.0853 -28.4239 -34.5436
437 1 -6.4682 -31.0079 -39.2116
438 1 -6.4682 -28.4239 -37.3444
439 1 -4.8512 -31.0079 -36.4108
440 1 -4.8512 -28.4239 -34.5436
441 1 -3.2341 -31.0079 -39.2116
442 1 -3.2341 -28.4239 -37.3444
443 1 -1.6171 -31.0079 -36.4108
444 1 -1.6171 -28.4239 -34.5436
445 1 0.0000 -31.0079 -39.2116
446 1 0.0000 -28.4239 -37.3444
447 1 1.6171 -31.0079 -36.4108
448 1 1.6171 -28.4239 -34.5436
449 1 3.2341 -31.0079 -39.2116
450 1 3.2341 -28.4239 -37.3444
451 1 4.8512 -31.0079 -36.4108
452 1 4.8512 -28.4239 -34.5436
453 1 6.4682 -31.0079 -39.2116
454 1 6.4682 -28.4239 -37.3444
455 1 8.0853 -31.0079 -36.4108
456 1 8.0853 -28.4239 -34.5436
457 1 -9.7024 -25.8399 -39.2116
458 1 -9.7024 -23.2559 -37.3444
459 1 -8.0853 -25.8399 -36.4108
460 1 -8.0853 -23.2559 -34.5436
461 1 -6.4682 -25.8399 -39.2116
462 1 -6.4682 -23.2559 -37.3444
463 1 -4.8512 -25.8399 -36.4108
464 1 -4.8512 -23.2559 -34.5436
465 1 -3.2341 -25.8399 -39.2116
466 1 -3.2341 -23.2559 -37.3444
467 1 -1.6171 -25.8399 -36.4108
468 1 -1.6171 -23.2559 -34.5436
469 1 0.0000 -25.8399 -39.2116
470 1 0.0000 -23.2559 -37.3444
471 1 1.6171 -25.8399 -36.4108
472 1 1.6171 -23.2559 -34.5436
473 1 3.2341 -25.8399 -39.2116
474 1 3.2341 -23.2559 -37.3444
475 1 4.8512 -25.8399 -36.4108
476 1 4.8512 -23.2559 -34.5436
477 1 6.4682 -25.8399 -39.2116
478 1 6.4682 -23.2559 -37.3444
479 1 8.0853 -25.8399 -36.4108
480 1 8.0853 -23.2559 -34.5436
481 1 -9.7024 -20.6719 -39.2116
482 1 -9.7024 -18.0879 -37.3444
483 1 -8.0853 -20.6719 -36.4108
484 1 -8.0853 -18.0879 -34.5436
485 1 -6.4682 -20.6719 -39.2116
486 1 -6.4682 -18.0879 -37.3444
487 1 -4.8512 -20.6719 -36.4108
488 1 -4.8512 -18.0879 -34.5436
489 1 -3.2341 -20.6719 -39.2116
490 1 -3.2341 -18.0879 -37.3444
491 1 -1.6171 -20.6719 -36.4108
492 1 -1.6171 -18.0879 -34.5436
493 1 0.0000 -20.6719 -39.2116
494 1 0.0000 -18.0879 -37.3444
495 1 1.6171 -20.6719 -36.4108
496 1 1.6171 -18.0879 -34.5436
497 1 3.2341 -20.6719 -39.2116
498 1 3.2341 -18.0879 -37.3444
499 1 4.8512 -20.6719 -36.4108
500 1 4.8512 -18.0879 -34.5436
501 1 6.4682 -20.6719 -39.2116
502 1 6.4682 -18.0879 -37.3444
503 1 8.0853 -20.6719 -36.4108
504 1 8.0853 -18.0879 -34.5436
505 1 -9.7024 -15.5039 -39.2116
506 1 -9.7024 -12.9200 -37.3444
507 1 -8.0853 -15.5039 -36.4108
508 1 -8.0853 -12.9200 -34.5436
509 1 -6.4682 -15.5039 -39.2116
510 1 -6.4682 -12.9200 -37.3444
511 1 -4.8512 -15.5039 -36.4108
512 1 -4.8512 -12.9200 -34.5436
513 1 -3.2341 -15.5039 -39.2116
514 1 -3.2341 -12.9200 -37.3444
515 1 -1.6171 -15.5039 -36.4108
516 1 -1.6171 -12.9200 -34.5436
517 1 0.0000 -15.5039 -39.2116
518 1 0.0000 -12.9200 -37.3444
519 1 1.6171 -15.5039 -36.4108
520 1 1.6171 -12.9200 -34.5436
521 1 3.2341 -15.5039 -39.2116
522 1 3.2341 -12.9200 -37.3444
523 1 4.8512 -15.5039 -36.4108
524 1 4.8512 -12.9200 -34.5436
525 1 6.4682 -15.5039 -39.2116
526 1 6.4682 -12.9200 -37.3444
527 1 8.0853 -15.5039 -36.4108
528 1 8.0853 -12.9200 -34.5436
529 1 -9.7024 -10.3360 -39.2116
530 1 -9.7024 -7.7520 -37.3444
531 1 -8.0853 -10.3360 -36.4108
532 1 -8.0853 -7.7520 -34.5436
533 1 -6.4682 -10.3360 -39.2116
534 1 -6.4682 -7.7520 -37.3444
535 1 -4.8512 -10.3360 -36.4108
536 1 -4.8512 -7.7520 -34.5436
537 1 -3.2341 -10.3360 -39.2116
538 1 -3.2341 -7.7520 -37.3444
539 1 -1.6171 -10.3360 -36.4108
540 1 -1.6171 -7.7520 -34.5436
541 1 0.0000 -10.3360 -39.2116
542 1 0.0000 -7.7520 -37.3444
543 1 1.6171 -10.3360 -36.4108
544 1 1.6171 -7.7520 -34.5436
545 1 3.2341 -10.3360 -39.2116
546 1 3.2341 -7.7520 -37.3444
547 1 4.8512 -10.3360 -36.4108
548 1 4.8512 -7.7520 -34.5436
549 1 6.4682 -10.3360 -39.2116
550 1 6.4682 -7.7520 -37.3444
551 1 8.0853 -10.3360 -36.4108
552 1 8.0853 -7.7520 -34.5436
553 1 -9.7024 -5.1680 -39.2116
554 1 -9.7024 -2.5840 -37.3444
555 1 -8.0853 -5.1680 -36.4108
556 1 -8.0853 -2.5840 -34.5436
557 1 -6.4682 -5.1680 -39.2116
558 1 -6.4682 -2.5840 -37.3444
559 1 -4.8512 -5.1680 -36.4108
560 1 -4.8512 -2.5840 -34.5436
561 1 -3.2341 -5.1680 -39.2116
562 1 -3.2341 -2.5840 -37.3444
563 1 -1.6171 -5.1680 -36.4108
564 1 -1.6171 -2.5840 -34.5436
565 1 0.0000 -5.1680 -39.2116
566 1 0.0000 -2.5840 -37.3444
567 1 1.6171 -5.1680 -36.4108
568 1 1.6171 -2.5840 -34.5436
569 1 3.2341 -5.1680 -39.2116
570 1 3.2341 -2.5840 -37.3444
571 1 4.8512 -5.1680 -36.4108
572 1 4.8512 -2.5840 -34.5436
573 1 6.4682 -5.1680 -39.2116
574 1 6.4682 -2.5840 -37.3444
575 1 8.0853 -5.1680 -36.4108
576 1 8.0853 -2.5840 -34.5436
577 1 -9.7024 0.0000 -39.2116
578 1 -9.7024 2.5840 -37.3444
579 1 -8.0853 0.0000 -36.4108
580 1 -8.0853 2.5840 -34.5436
581 1 -6.4682 0.0000 -39.2116
582 1 -6.4682 2.5840 -37.3444
583 1 -4.8512 0.0000 -36.4108
584 1 -4.8512 2.5840 -34.5436
585 1 -3.2341 0.0000 -39.2116
586 1 -3.2341 2.5840 -37.3444
587 1 -1.6171 0.0000 -36.4108
588 1 -1.6171 2.5840 -34.5436
589 1 0.0000 0.0000 -39.2116
590 1 0.0000 2.5840 -37.3444
591 1 1.6171 0.0000 -36.4108
592 1 1.6171 2.5840 -34.5436
593 1 3.2341 0.0000 -39.2116
594 1 3.2341 2.5840 -37.3444
595 1 4.8512 0.0000 -36.4108
596 1 4.8512 2.5840 -34.5436
597 1 6.4682 0.0000 -39.2116
598 1 6.4682 2.5840 -37.3444
599 1 8.0853 0.0000 -36.4108
600 1 8.0853 2.5840 -34.5436
601 1 -9.7024 5.1680 -39.2116
602 1 -9.7024 7.7520 -37.3444
603 1 -8.0853 5.1680 -36.4108
604 1 -8.0853 7.7520 -34.5436
605 1 -6.4682 5.1680 -39.2116
606 1 -6.4682 7.7520 -37.3444
607 1 -4.8512 5.1680 -36.4108
608 1 -4.8512 7.7520 -34.5436
609 1 -3.2341 5.1680 -39.2116
610 1 -3.2341 7.7520 -37.3444
611 1 -1.6171 5.1680 -36.4108
612 1 -1.6171 7.7520 -34.5436
613 1 0.0000 5.1680 -39.2116
614 1 0.0000 7.7520 -37.3444
615 1 1.6171 5.1680 -36.4108
616 1 1.6171 7.7520 -34.5436
617 1 3.2341 5.1680 -39.2116
618 1 3.2341 7.7520 -37.3444
619 1 4.8512 5.1680 -36.4108
620 1 4.8512 7.7520 -34.5436
621 1 6.4682 5.1680 -39.2116
622 1 6.4682 7.7520 -37.3444
623 1 8.0853 5.1680 -36.4108
624 1 8.0853 7.7520 -34.5436
625 1 -9.7024 10.3360 -39.2116
626 1 -9.7024 12.9200 -37.3444
627 1 -8.0853 10.3360 -36.4108
628 1 -8.0853 12.9200 -34.5436
629 1 -6.4682 10.3360 -39.2116
630 1 -6.4682 12.9200 -37.3444
631 1 -4.8512 10.3360 -36.4108
632 1 -4.8512 12.9200 -34.5436
633 1 -3.2341 10.3360 -39.2116
634 1 -3.2341 12.9200 -37.3444
635 1 -1.6171 10.3360 -36.4108
636 1 -1.6171 12.9200 -34.5436
637 1 0.0000 10.3360 -39.2116
638 1 0.0000 12.9200 -37.3444
639 1 1.6171 10.3360 -36.4108
640 1 1.6171 12.9200 -34.5436
641 1 3.2341 10.3360 -39.2116
642 1 3.2341 12.9200 -37.3444
643 1 4.8512 10.3360 -36.4108
644 1 4.8512 12.9200 -34.5436
645 1 6.4682 10.3360 -39.2116
646 1 6.4682 12.9200 -37.3444
647 1 8.0853 10.3360 -36.4108
648 1 8.0853 12.9200 -34.5436
649 1 -9.7024 15.5039 -39.2116
650 1 -9.7024 18.0879 -37.3444
651 1 -8.0853 15.5039 -36.4108
652 1 -8.0853 18.0879 -34.5436
653 1 -6.4682 15.5039 -39.2116
654 1 -6.4682 18.0879 -37.3444
655 1 -4.8512 15.5039 -36.4108
656 1 -4.8512 18.0879 -34.5436
657 1 -3.2341 15.5039 -39.2116
658 1 -3.2341 18.0879 -37.3444
659 1 -1.6171 15.5039 -36.4108
660 1 -1.6171 18.0879 -34.5436
661 1 0.0000 15.5039 -39.2116
662 1 0.0000 18.0879 -37.3444
663 1 1.6171 15.5039 -36.4108
664 1 1.6171 18.0879 -34.5436
665 1 3.2341 15.5039 -39.2116
666 1 3.2341 18.0879 -37.3444
667 1 4.8512 15.5039 -36.4108
668 1 4.8512 18.0879 -34.5436
669 1 6.4682 15.5039 -39.2116
670 1 6.4682 18.0879 -37.3444
671 1 8.0853 15.5039 -36.4108
672 1 8.0853 18.0879 -34.5436
673 1 -9.7024 20.6719 -39.2116
674 1 -9.7024 23.2559 -37.3444
675 1 -8.0853 20.6719 -36.4108
676 1 -8.0853 23.2559 -34.5436
677 1 -6.4682 20.6719 -39.2116
678 1 -6.4682 23.2559 -37.3444
679 1 -4.8512 20.6719 -36.4108
680 1 -4.8512 23.2559 -34.5436
681 1 -3.2341 20.6719 -39.2116
682 1 -3.2341 23.2559 -37.3444
683 1 -1.6171 20.6719 -36.4108
684 1 -1.6171 23.2559 -34.5436
685 1 0.0000 20.6719 -39.2116
686 1 0.0000 23.2559 -37.3444
687 1 1.6171 20.6719 -36.4108
688 1 1.6171 23.2559 -34.5436
689 1 3.2341 20.6719 -39.2116
690 1 3.2341 23.2559 -37.3444
691 1 4.8512 20.6719 -36.4108
692 1 4.8512 23.2559 -34.5436
693 1 6.4682 20.6719 -39.2116
694 1 6.4682 23.2559 -37.3444
695 1 8.0853 20.6719 -36.4108
696 1 8.0853 23.2559 -34.5436
697 1 -9.7024 25.8399 -39.2116
698 1 -9.7024 28.4239 -37.3444
699 1 -8.0853 25.8399 -36.4108
700 1 -8.0853 28.4239 -34.5436
701 1 -6.4682 25.8399 -39.2116
702 1 -6.4682 28.4239 -37.3444
703 1 -4.8512 25.8399 -36.4108
704 1 -4.8512 28.4239 -34.5436
705 1 -3.2341 25.8399 -39.2116
706 1 -3.2341 28.4239 -37.3444
707 1 -1.6171 25.8399 -36.4108
708 1 -1.6171 28.4239 -34.5436
709 1 0.0000 25.8399 -39.2116
710 1 0.0000 28.4239 -37.3444
711 1 1.6171 25.8399 -36.4108
712 1 1.6171 28.4239 -34.5436
713 1 3.2341 25.8399 -39.2116
714 1 3.2341 28.4239 -37.3444
715 1 4.8512 25.8399 -36.4108
716 1 4.8512 28.4239 -34.5436
717 1 6.4682 25.8399 -39.2116
718 1 6.4682 28.4239 -37.3444
719 1 8.0853 25.8399 -36.4108
720 1 8.0853 28.4239 -34.5436
721 1 -9.7024 31.0079 -39.2116
722 1 -9.7024 33.5919 -37.3444
723 1 -8.0853 31.0079 -36.4108
724 1 -8.0853 33.5919 -34.5436
725 1 -6.4682 31.0079 -39.2116
726 1 -6.4682 33.5919 -37.3444
727 1 -4.8512 31.0079 -36.4108
728 1 -4.8512 33.5919 -34.5436
729 1 -3.2341 31.0079 -39.2116
730 1 -3.2341 33.5919 -37.3444
731 1 -1.6171 31.0079 -36.4108
732 1 -1.6171 33.5919 -34.5436
733 1 0.0000 31.0079 -39.2116
734 1 0.0000 33.5919 -37.3444
735 1 1.6171 31.0079 -36.4108
736 1 1.6171 33.5919 -34.5436
737 1 3.2341 31.0079 -39.2116
738 1 3.2341 33.5919 -37.3444
739 1 4.8512 31.0079 -36.4108
740 1 4.8512 33.5919 -34.5436
741 1 6.4682 31.0079 -39.2116
742 1 6.4682 33.5919 -37.3444
743 1 8.0853 31.0079 -36.4108
744 1 8.0853 33.5919 -34.5436
745 1 -9.7024 36.1759 -39.2116
746 1 -9.7024 38.7599 -37.3444
747 1 -8.0853 36.1759 -36.4108
748 1 -8.0853 38.7599 -34.5436
749 1 -6.4682 36.1759 -39.2116
750 1 -6.4682 38.7599 -37.3444
751 1 -4.8512 36.1759 -36.4108
752 1 -4.8512 38.7599 -34.5436
753 1 -3.2341 36.1759 -39.2116
754 1 -3.2341 38.7599 -37.3444
755 1 -1.6171 36.1759 -36.4108
756 1 -1.6171 38.7599 -34.5436
757 1 0.0000 36.1759 -39.2116
758 1 0.0000 38.7599 -37.3444
759 1 1.6171 36.1759 -36.4108
760 1 1.6171 38.7599 -34.5436
761 1 3.2341 36.1759 -39.2116
762 1 3.2341 38.7599 -37.3444
763 1 4.8512 36.1759 -36.4108
764 1 4.8512 38.7599 -34.5436
765 1 6.4682 36.1759 -39.2116
766 1 6.4682 38.7599 -37.3444
767 1 8.0853 36.1759 -36.4108
768 1 8.0853 38.7599 -34.5436
769 1 -9.7024 -41.3438 -33.6100
770 1 -9.7024 -38.7599 -31.7427
771 1 -8.0853 -41.3438 -30.8091
772 1 -8.0853 -38.7599 -28.9419
773 1 -6.4682 -41.3438 -33.6100
774 1 -6.4682 -38.7599 -31.7427
775 1 -4.8512 -41.3438 -30.8091
776 1 -4.8512 -38.7599 -28.9419
777 1 -3.2341 -41.3438 -33.6100
778 1 -3.2341 -38.7599 -31.7427
779 1 -1.6171 -41.3438 -30.8091
780 1 -1.6171 -38.7599 -28.9419
781 1 0.0000 -41.3438 -33.6100
782 1 0.0000 -38.7599 -31.7427
783 1 1.6171 -41.3438 -30.8091
784 1 1.6171 -38.7599 -28.9419
785 1 3.2341 -41.3438 -33.6100
786 1 3.2341 -38.7599 -31.7427
787 1 4.8512 -41.3438 -30.8091
788 1 4.8512 -38.7599 -28.9419
789 1 6.4682 -41.3438 -33.6100
790 1 6.4682 -38.7599 -31.7427
791 1 8.0853 -41.3438 -30.8091
792 1 8.0853 -38.7599 -28.9419
793 1 -9.7024 -36.1759 -33.6100
794 1 -9.7024 -33.5919 -31.7427
795 1 -8.0853 -36.1759 -30.8091
796 1 -8.0853 -33.5919 -28.9419
797 1 -6.4682 -36.1759 -33.6100
798 1 -6.4682 -33.5919 -31.7427
799 1 -4.8512 -36.1759 -30.8091
800 1 -4.8512 -33.5919 -28.9419
801 1 -3.2341 -36.1759 -33.6100
802 1 -3.2341 -33.5919 -31.7427
803 1 -1.6171 -36.1759 -30.8091
804 1 -1.6171 -33.5919 -28.9419
805 1 0.0000 -36.1759 -33.6100
806 1 0.0000 -33.5919 -31.7427
807 1 1.6171 -36.1759 -30.8091
808 1 1.6171 -33.5919 -28.9419
809 1 3.2341 -36.1759 -33.6100
810 1 3.2341 -33.5919 -31.7427
811 1 4.8512 -36.1759 -30.8091
812 1 4.8512 -33.5919 -28.9419
813 1 6.4682 -36.1759 -33.6100
814 1 6.4682 -33.5919 -31.7427
815 1 8.0853 -36.1759 -30.8091
816 1 8.0853 -33.5919 -28.9419
817 1 -9.7024 -31.0079 -33.6100
818 1 -9.7024 -28.4239 -31.7427
819 1 -8.0853 -31.0079 -30.8091
820 1 -8.0853 -28.4239 -28.9419
821 1 -6.4682 -31.0079 -33.6100
822 1 -6.4682 -28.4239 -31.7427
823 1 -4.8512 -31.0079 -30.8091
824 1 -4.8512 -28.4239 -28.9419
825 1 -3.2341 -31.0079 -33.6100
826 1 -3.2341 -28.4239 -31.7427
827 1 -1.6171 -31.0079 -30.8091
828 1 -1.6171 -28.4239 -28.9419
829 1 0.0000 -31.0079 -33.6100
830 1 0.0000 -28.4239 -31.7427
831 1 1.6171 -31.0079 -30.8091
832 1 1.6171 -28.4239 -28.9419
833 1 3.2341 -31.0079 -33.6100
834 1 3.2341 -28.4239 -31.7427
835 1 4.8512 -31.0079 -30.8091
836 1 4.8512 -28.4239 -28.9419
837 1 6.4682 -31.0079 -33.6100
838 1 6.4682 -28.4239 -31.7427
839 1 8.0853 -31.0079 -30.8091
840 1 8.0853 -28.4239 -28.9419
841 1 -9.7024 -25.8399 -33.6100
842 1 -9.7024 -23.2559 -31.7427
843 1 -8.0853 -25.8399 -30.8091
844 1 -8.0853 -23.2559 -28.9419
845 1 -6.4682 -25.8399 -33.6100
846 1 -6.4682 -23.2559 -31.7427
847 1 -4.8512 -25.8399 -30.8091
848 1 -4.8512 -23.2559 -28.9419
849 1 -3.2341 -25.8399 -33.6100
850 1 -3.2341 -23.2559 -31.7427
851 1 -1.6171 -25.8399 -30.8091
852 1 -1.6171 -23.2559 -28.9419
853 1 0.0000 -25.8399 -33.6100
854 1 0.0000 -23.2559 -31.7427
855 1 1.6171 -25.8399 -30.8091
856 1 1.6171 -23.2559 -28.9419
857 1 3.2341 -25.8399 -33.6100
858 1 3.2341 -23.2559 -31.7427
859 1 4.8512 -25.8399 -30.8091
860 1 4.8512 -23.2559 -28.9419
861 1 6.4682 -25.8399 -33.6100
862 1 6.4682 -23.2559 -31.7427
863 1 8.0853 -25.8399 -30.8091
864 1 8.0853 -23.2559 -28.9419
865 1 -9.7024 -20.6719 -33.6100
866 1 -9.7024 -18.0879 -31.7427
867 1 -8.0853 -20.6719 -30.8091
868 1 -8.0853 -18.0879 -28.9419
869 1 -6.4682 -20.6719 -33.6100
870 1 -6.4682 -18.0879 -31.7427
871 1 -4.8512 -20.6719 -30.8091
872 1 -4.8512 -18.0879 -28.9419
873 1 -3.2341 -20.6719 -33.6100
874 1 -3.2341 -18.0879 -31.7427
875 1 -1.6171 -20.6719 -30.8091
876 1 -1.6171 -18.0879 -28.9419
877 1 0.0000 -20.6719 -33.6100
878 1 0.0000 -18.0879 -31.7427
879 1 1.6171 -20.6719 -30.8091
880 1 1.6171 -18.0879 -28.9419
881 1 3.2341 -20.6719 -33.6100
882 1 3.2341 -18.0879 -31.7427
883 1 4.8512 -20.6719 -30.8091
884 1 4.8512 -18.0879 -28.9419
885 1 6.4682 -20.6719 -33.6100
886 1 6.4682 -18.0879 -31.7427
887 1 8.0853 -20.6719 -30.8091
888 1 8.0853 -18.0879 -28.9419
889 1 -9.7024 -15.5039 -33.6100
890 1 -9.7024 -12.9200 -31.7427
891 1 -8.0853 -15.5039 -30.8091
892 1 -8.0853 -12.9200 -28.9419
893 1 -6.4682 -15.5039 -33.6100
894 1 -6.4682 -12.9200 -31.7427
895 1 -4.8512 -15.5039 -30.8091
896 1 -4.8512 -12.9200 -28.9419
897 1 -3.2341 -15.5039 -33.6100
898 1 -3.2341 -12.9200 -31.7427
899 1 -1.6171 -15.5039 -30.8091
900 1 -1.6171 -12.9200 -28.9419
901 1 0.0000 -15.5039 -33.6100
902 1 0.0000 -12.9200 -31.7427
903 1 1.6171 -15.5039 -30.8091
904 1 1.6171 -12.9200 -28.9419
905 1 3.2341 -15.5039 -33.6100
906 1 3.2341 -12.9200 -31.7427
907 1 4.8512 -15.5039 -30.8091
908 1 4.8512 -12.9200 -28.9419
909 1 6.4682 -15.5039 -33.6100
910 1 6.4682 -12.9200 -31.7427
911 1 8.0853 -15.5039 -30.8091
912 1 8.0853 -12.9200 -28.9419
913 1 -9.7024 -10.3360 -33.6100
914 1 -9.7024 -7.7520 -31.7427
915 1 -8.0853 -10.3360 -30.8091
916 1 -8.0853 -7.7520 -28.9419
917 1 -6.4682 -10.3360 -33.6100
918 1 -6.4682 -7.7520 -31.7427
919 1 -4.8512 -10.3360 -30.8091
920 1 -4.8512 -7.7520 -28.9419
921 1 -3.2341 -10.3360 -33.6100
922 1 -3.2341 -7.7520 -31.7427
923 1 -1.6171 -10.3360 -30.8091
924 1 -1.6171 -7.7520 -28.9419
925 1 0.0000 -10.3360 -33.6100
926 1 0.0000 -7.7520 -31.7427
927 1 1.6171 -10.3360 -30.8091
928 1 1.6171 -7.7520 -28.9419
929 1 3.2341 -10.3360 -33.6100
930 1 3.2341 -7.7520 -31.7427
931 1 4.8512 -10.3360 -30.8091
932 1 4.8512 -7.7520 -28.9419
933 1 6.4682 -10.3360 -33.6100
934 1 6.4682 -7.7520 -31.7427
935 1 8.0853 -10.3360 -30.8091
936 1 8.0853 -7.7520 -28.9419
937 1 -9.7024 -5.1680 -33.6100
938 1 -9.7024 -2.5840 -31.7427
939 1 -8.0853 -5.1680 -30.8091
940 1 -8.0853 -2.5840 -28.9419
941 1 -6.4682 -5.1680 -33.6100
942 1 -6.4682 -2.5840 -31.7427
943 1 -4.8512 -5.1680 -30.8091
944 1 -4.8512 -2.5840 -28.9419
945 1 -3.2341 -5.1680 -33.6100
946 1 -3.2341 -2.5840 -31.7427
947 1 -1.6171 -5.1680 -30.8091
948 1 -1.6171 -2.5840 -28.9419
949 1 0.0000 -5.1680 -33.6100
950 1 0.0000 -2.5840 -31.7427
951 1 1.6171 -5.1680 -30.8091
952 1 1.6171 -2.5840 -28.9419
953 1 3.2341 -5.1680 -33.6100
954 1 3.2341 -2.5840 -31.7427
955 1 4.8512 -5.1680 -30.8091
956 1 4.8512 -2.5840 -28.9419
957 1 6.4682 -5.1680 -33.6100
958 1 6.4682 -2.5840 -31.7427
959 1 8.0853 -5.1680 -30.8091
960 1 8.0853 -2.5840 -28.9419
961 1 -9.7024 0.0000 -33.6100
962 1 -9.7024 2.5840 -31.7427
963 1 -8.0853 0.0000 -30.8091
964 1 -8.0853 2.5840 -28.9419
965 1 -6.4682 0.0000 -33.6100
966 1 -6.4682 2.5840 -31.7427
967 1 -4.8512 0.0000 -30.8091
968 1 -4.8512 2.5840 -28.9419
969 1 -3.2341 0.0000 -33.6100
970 1 -3.2341 2.5840 -31.7427